3260
Atoms. Timestep: 117
1 -4.085 -10.2125 -18.3825
1 -2.0425 -12.255 -18.3825
1 0 -12.255 -20.425
1 0 -10.2125 -18.3825
1 2.0425 -12.255 -18.3825
1 4.085 -10.2125 -18.3825
1 -6.1275 -8.17 -18.3825
1 -4.085 -6.1275 -18.3825
1 -2.0425 -8.17 -18.3825
1 0 -8.17 -20.425
1 0 -6.1275 -18.3825
1 2.0425 -8.17 -18.3825
1 4.085 -6.1275 -18.3825
1 6.1275 -8.17 -18.3825
1 -6.1275 -4.085 -18.3825
1 -4.085 -2.0425 -18.3825
1 -2.0425 -4.085 -18.3825
1 0 -4.085 -20.425
1 0 -2.0425 -18.3825
1 2.0425 -4.085 -18.3825
1 4.085 -2.0425 -18.3825
1 6.1275 -4.085 -18.3825
1 -6.1275 0 -18.3825
1 -4.085 2.0425 -18.3825
1 -2.0425 0 -18.3825
1 0 0 -20.425
1 0 2.0425 -18.3825
1 2.0425 0 -18.3825
1 4.085 2.0425 -18.3825
1 6.1275 0 -18.3825
1 -6.1275 4.085 -18.3825
1 -4.085 6.1275 -18.3825
1 -2.0425 4.085 -18.3825
1 0 4.085 -20.425
1 0 6.1275 -18.3825
1 2.0425 4.085 -18.3825
1 4.085 6.1275 -18.3825
1 6.1275 4.085 -18.3825
1 -6.1275 8.17 -18.3825
1 -4.085 10.2125 -18.3825
1 -2.0425 8.17 -18.3825
1 0 8.17 -20.425
1 0 10.2125 -18.3825
1 2.0425 8.17 -18.3825
1 4.085 10.2125 -18.3825
1 6.1275 8.17 -18.3825
1 -2.0425 12.255 -18.3825
1 0 12.255 -20.425
1 2.0425 12.255 -18.3825
1 -4.085 -14.2975 -14.2975
1 -2.0425 -14.2975 -16.34
1 0 -14.2975 -14.2975
1 2.0425 -14.2975 -16.34
1 4.085 -14.2975 -14.2975
1 -8.17 -10.2125 -14.2975
1 -6.1275 -12.255 -14.2975
1 -6.1275 -10.2125 -16.34
1 -4.085 -12.255 -16.34
1 -4.085 -10.2125 -14.2975
1 -2.0425 -12.255 -14.2975
1 -2.0425 -10.2125 -16.34
1 0 -12.255 -16.34
1 2.0425 -12.255 -14.2975
1 2.0425 -10.2125 -16.34
1 4.085 -12.255 -16.34
1 4.085 -10.2125 -14.2975
1 6.1275 -12.255 -14.2975
1 6.1275 -10.2125 -16.34
1 8.17 -10.2125 -14.2975
1 -12.255 -6.1275 -14.2975
1 -10.2125 -8.17 -14.2975
1 -10.2125 -6.1275 -16.34
1 -8.17 -8.17 -16.34
1 -8.17 -6.1275 -14.2975
1 -6.1275 -8.17 -14.2975
1 -6.1275 -6.1275 -16.34
1 -4.085 -8.17 -16.34
1 -2.0425 -6.1275 -16.34
1 0 -8.17 -16.34
1 2.0425 -6.1275 -16.34
1 4.085 -8.17 -16.34
1 6.1275 -8.17 -14.2975
1 6.1275 -6.1275 -16.34
1 8.17 -8.17 -16.34
1 8.17 -6.1275 -14.2975
1 10.2125 -8.17 -14.2975
1 10.2125 -6.1275 -16.34
1 12.255 -6.1275 -14.2975
1 -16.34 -2.0425 -14.2975
1 -14.2975 -4.085 -14.2975
1 -12.255 -4.085 -16.34
1 -12.255 -2.0425 -14.2975
1 -10.2125 -4.085 -14.2975
1 -10.2125 -2.0425 -16.34
1 -8.17 -4.085 -16.34
1 -8.17 -2.0425 -14.2975
1 -6.1275 -4.085 -14.2975
1 -6.1275 -2.0425 -16.34
1 -4.085 -4.085 -16.34
1 -2.0425 -2.0425 -16.34
1 0 -4.085 -16.34
1 2.0425 -2.0425 -16.34
1 4.085 -4.085 -16.34
1 6.1275 -4.085 -14.2975
1 6.1275 -2.0425 -16.34
1 8.17 -4.085 -16.34
1 8.17 -2.0425 -14.2975
1 10.2125 -4.085 -14.2975
1 10.2125 -2.0425 -16.34
1 12.255 -4.085 -16.34
1 12.255 -2.0425 -14.2975
1 14.2975 -4.085 -14.2975
1 16.34 -2.0425 -14.2975
1 -16.34 2.0425 -14.2975
1 -14.2975 0 -14.2975
1 -12.255 0 -16.34
1 -12.255 2.0425 -14.2975
1 -10.2125 0 -14.2975
1 -10.2125 2.0425 -16.34
1 -8.17 0 -16.34
1 -8.17 2.0425 -14.2975
1 -6.1275 0 -14.2975
1 -6.1275 2.0425 -16.34
1 -4.085 0 -16.34
1 -2.0425 2.0425 -16.34
1 0 0 -16.34
1 2.0425 2.0425 -16.34
1 4.085 0 -16.34
1 6.1275 0 -14.2975
1 6.1275 2.0425 -16.34
1 8.17 0 -16.34
1 8.17 2.0425 -14.2975
1 10.2125 0 -14.2975
1 10.2125 2.0425 -16.34
1 12.255 0 -16.34
1 12.255 2.0425 -14.2975
1 14.2975 0 -14.2975
1 16.34 2.0425 -14.2975
1 -14.2975 4.085 -14.2975
1 -12.255 4.085 -16.34
1 -12.255 6.1275 -14.2975
1 -10.2125 4.085 -14.2975
1 -10.2125 6.1275 -16.34
1 -8.17 4.085 -16.34
1 -8.17 6.1275 -14.2975
1 -6.1275 4.085 -14.2975
1 -6.1275 6.1275 -16.34
1 -4.085 4.085 -16.34
1 -2.0425 6.1275 -16.34
1 0 4.085 -16.34
1 2.0425 6.1275 -16.34
1 4.085 4.085 -16.34
1 6.1275 4.085 -14.2975
1 6.1275 6.1275 -16.34
1 8.17 4.085 -16.34
1 8.17 6.1275 -14.2975
1 10.2125 4.085 -14.2975
1 10.2125 6.1275 -16.34
1 12.255 4.085 -16.34
1 12.255 6.1275 -14.2975
1 14.2975 4.085 -14.2975
1 -10.2125 8.17 -14.2975
1 -8.17 8.17 -16.34
1 -8.17 10.2125 -14.2975
1 -6.1275 8.17 -14.2975
1 -6.1275 10.2125 -16.34
1 -4.085 8.17 -16.34
1 -4.085 10.2125 -14.2975
1 -2.0425 10.2125 -16.34
1 0 8.17 -16.34
1 2.0425 10.2125 -16.34
1 4.085 8.17 -16.34
1 4.085 10.2125 -14.2975
1 6.1275 8.17 -14.2975
1 6.1275 10.2125 -16.34
1 8.17 8.17 -16.34
1 8.17 10.2125 -14.2975
1 10.2125 8.17 -14.2975
1 -6.1275 12.255 -14.2975
1 -4.085 12.255 -16.34
1 -4.085 14.2975 -14.2975
1 -2.0425 12.255 -14.2975
1 -2.0425 14.2975 -16.34
1 0 12.255 -16.34
1 0 14.2975 -14.2975
1 2.0425 12.255 -14.2975
1 2.0425 14.2975 -16.34
1 4.085 12.255 -16.34
1 4.085 14.2975 -14.2975
1 6.1275 12.255 -14.2975
1 -8.17 -14.2975 -10.2125
1 -6.1275 -16.34 -10.2125
1 -6.1275 -14.2975 -12.255
1 -4.085 -16.34 -12.255
1 -4.085 -14.2975 -10.2125
1 -2.0425 -16.34 -10.2125
1 -2.0425 -14.2975 -12.255
1 0 -16.34 -12.255
1 0 -14.2975 -10.2125
1 2.0425 -16.34 -10.2125
1 2.0425 -14.2975 -12.255
1 4.085 -16.34 -12.255
1 4.085 -14.2975 -10.2125
1 6.1275 -16.34 -10.2125
1 6.1275 -14.2975 -12.255
1 8.17 -14.2975 -10.2125
1 -12.255 -10.2125 -10.2125
1 -10.2125 -12.255 -10.2125
1 -10.2125 -10.2125 -12.255
1 -8.17 -12.255 -12.255
1 -8.17 -10.2125 -10.2125
1 -6.1275 -12.255 -10.2125
1 -6.1275 -10.2125 -12.255
1 -4.085 -12.255 -12.255
1 0 -12.255 -12.255
1 4.085 -12.255 -12.255
1 6.1275 -12.255 -10.2125
1 6.1275 -10.2125 -12.255
1 8.17 -12.255 -12.255
1 8.17 -10.2125 -10.2125
1 10.2125 -12.255 -10.2125
1 10.2125 -10.2125 -12.255
1 12.255 -10.2125 -10.2125
1 -16.34 -6.1275 -10.2125
1 -14.2975 -8.17 -10.2125
1 -14.2975 -6.1275 -12.255
1 -12.255 -8.17 -12.255
1 -12.255 -6.1275 -10.2125
1 -10.2125 -8.17 -10.2125
1 -10.2125 -6.1275 -12.255
1 -8.17 -8.17 -12.255
1 8.17 -8.17 -12.255
1 10.2125 -8.17 -10.2125
1 10.2125 -6.1275 -12.255
1 12.255 -8.17 -12.255
1 12.255 -6.1275 -10.2125
1 14.2975 -8.17 -10.2125
1 14.2975 -6.1275 -12.255
1 16.34 -6.1275 -10.2125
1 -18.3825 -4.085 -10.2125
1 -18.3825 -2.0425 -12.255
1 -16.34 -4.085 -12.255
1 -16.34 -2.0425 -10.2125
1 -14.2975 -4.085 -10.2125
1 -14.2975 -2.0425 -12.255
1 -12.255 -4.085 -12.255
1 12.255 -4.085 -12.255
1 14.2975 -4.085 -10.2125
1 14.2975 -2.0425 -12.255
1 16.34 -4.085 -12.255
1 16.34 -2.0425 -10.2125
1 18.3825 -4.085 -10.2125
1 18.3825 -2.0425 -12.255
1 -20.425 0 -12.255
1 -18.3825 0 -10.2125
1 -18.3825 2.0425 -12.255
1 -16.34 0 -12.255
1 -16.34 2.0425 -10.2125
1 -14.2975 2.0425 -12.255
1 -12.255 0 -12.255
1 12.255 0 -12.255
1 14.2975 2.0425 -12.255
1 16.34 0 -12.255
1 16.34 2.0425 -10.2125
1 18.3825 0 -10.2125
1 18.3825 2.0425 -12.255
1 20.425 0 -12.255
1 -18.3825 4.085 -10.2125
1 -16.34 4.085 -12.255
1 -16.34 6.1275 -10.2125
1 -14.2975 4.085 -10.2125
1 -14.2975 6.1275 -12.255
1 -12.255 4.085 -12.255
1 -12.255 6.1275 -10.2125
1 -10.2125 6.1275 -12.255
1 10.2125 6.1275 -12.255
1 12.255 4.085 -12.255
1 12.255 6.1275 -10.2125
1 14.2975 4.085 -10.2125
1 14.2975 6.1275 -12.255
1 16.34 4.085 -12.255
1 16.34 6.1275 -10.2125
1 18.3825 4.085 -10.2125
1 -14.2975 8.17 -10.2125
1 -12.255 8.17 -12.255
1 -12.255 10.2125 -10.2125
1 -10.2125 8.17 -10.2125
1 -10.2125 10.2125 -12.255
1 -8.17 8.17 -12.255
1 -8.17 10.2125 -10.2125
1 -6.1275 10.2125 -12.255
1 6.1275 10.2125 -12.255
1 8.17 8.17 -12.255
1 8.17 10.2125 -10.2125
1 10.2125 8.17 -10.2125
1 10.2125 10.2125 -12.255
1 12.255 8.17 -12.255
1 12.255 10.2125 -10.2125
1 14.2975 8.17 -10.2125
1 -10.2125 12.255 -10.2125
1 -8.17 12.255 -12.255
1 -8.17 14.2975 -10.2125
1 -6.1275 12.255 -10.2125
1 -6.1275 14.2975 -12.255
1 -4.085 12.255 -12.255
1 -4.085 14.2975 -10.2125
1 -2.0425 14.2975 -12.255
1 0 12.255 -12.255
1 0 14.2975 -10.2125
1 2.0425 14.2975 -12.255
1 4.085 12.255 -12.255
1 4.085 14.2975 -10.2125
1 6.1275 12.255 -10.2125
1 6.1275 14.2975 -12.255
1 8.17 12.255 -12.255
1 8.17 14.2975 -10.2125
1 10.2125 12.255 -10.2125
1 -6.1275 16.34 -10.2125
1 -4.085 16.34 -12.255
1 -2.0425 16.34 -10.2125
1 0 16.34 -12.255
1 2.0425 16.34 -10.2125
1 4.085 16.34 -12.255
1 6.1275 16.34 -10.2125
1 -8.17 -18.3825 -6.1275
1 -4.085 -18.3825 -6.1275
1 0 -18.3825 -6.1275
1 4.085 -18.3825 -6.1275
1 8.17 -18.3825 -6.1275
1 -12.255 -14.2975 -6.1275
1 -10.2125 -16.34 -6.1275
1 -10.2125 -14.2975 -8.17
1 -8.17 -16.34 -8.17
1 -8.17 -14.2975 -6.1275
1 -6.1275 -16.34 -6.1275
1 -6.1275 -14.2975 -8.17
1 -4.085 -16.34 -8.17
1 -4.085 -14.2975 -6.1275
1 -2.0425 -16.34 -6.1275
1 -2.0425 -14.2975 -8.17
1 0 -16.34 -8.17
1 0 -14.2975 -6.1275
1 2.0425 -16.34 -6.1275
1 2.0425 -14.2975 -8.17
1 4.085 -16.34 -8.17
1 4.085 -14.2975 -6.1275
1 6.1275 -16.34 -6.1275
1 6.1275 -14.2975 -8.17
1 8.17 -16.34 -8.17
1 8.17 -14.2975 -6.1275
1 10.2125 -16.34 -6.1275
1 10.2125 -14.2975 -8.17
1 12.255 -14.2975 -6.1275
1 -16.34 -10.2125 -6.1275
1 -14.2975 -12.255 -6.1275
1 -14.2975 -10.2125 -8.17
1 -12.255 -12.255 -8.17
1 -12.255 -10.2125 -6.1275
1 -10.2125 -12.255 -6.1275
1 -10.2125 -10.2125 -8.17
1 -8.17 -12.255 -8.17
1 8.17 -12.255 -8.17
1 10.2125 -12.255 -6.1275
1 10.2125 -10.2125 -8.17
1 12.255 -12.255 -8.17
1 12.255 -10.2125 -6.1275
1 14.2975 -12.255 -6.1275
1 14.2975 -10.2125 -8.17
1 16.34 -10.2125 -6.1275
1 -18.3825 -6.1275 -8.17
1 -16.34 -8.17 -8.17
1 -16.34 -6.1275 -6.1275
1 -14.2975 -8.17 -6.1275
1 -14.2975 -6.1275 -8.17
1 -12.255 -8.17 -8.17
1 12.255 -8.17 -8.17
1 14.2975 -8.17 -6.1275
1 14.2975 -6.1275 -8.17
1 16.34 -8.17 -8.17
1 16.34 -6.1275 -6.1275
1 18.3825 -6.1275 -8.17
1 -18.3825 -4.085 -6.1275
1 -18.3825 -2.0425 -8.17
1 -16.34 -4.085 -8.17
1 -16.34 -2.0425 -6.1275
1 16.34 -4.085 -8.17
1 16.34 -2.0425 -6.1275
1 18.3825 -4.085 -6.1275
1 18.3825 -2.0425 -8.17
1 -20.425 0 -8.17
1 -18.3825 0 -6.1275
1 -18.3825 2.0425 -8.17
1 -16.34 0 -8.17
1 -16.34 2.0425 -6.1275
1 16.34 0 -8.17
1 16.34 2.0425 -6.1275
1 18.3825 0 -6.1275
1 18.3825 2.0425 -8.17
1 20.425 0 -8.17
1 -18.3825 4.085 -6.1275
1 -18.3825 6.1275 -8.17
1 -16.34 4.085 -8.17
1 -16.34 6.1275 -6.1275
1 -14.2975 6.1275 -8.17
1 14.2975 6.1275 -8.17
1 16.34 4.085 -8.17
1 16.34 6.1275 -6.1275
1 18.3825 4.085 -6.1275
1 18.3825 6.1275 -8.17
1 -16.34 8.17 -8.17
1 -16.34 10.2125 -6.1275
1 -14.2975 8.17 -6.1275
1 -14.2975 10.2125 -8.17
1 -12.255 8.17 -8.17
1 -12.255 10.2125 -6.1275
1 -10.2125 10.2125 -8.17
1 10.2125 10.2125 -8.17
1 12.255 8.17 -8.17
1 12.255 10.2125 -6.1275
1 14.2975 8.17 -6.1275
1 14.2975 10.2125 -8.17
1 16.34 8.17 -8.17
1 16.34 10.2125 -6.1275
1 -14.2975 12.255 -6.1275
1 -12.255 12.255 -8.17
1 -12.255 14.2975 -6.1275
1 -10.2125 12.255 -6.1275
1 -10.2125 14.2975 -8.17
1 -8.17 12.255 -8.17
1 -8.17 14.2975 -6.1275
1 -6.1275 14.2975 -8.17
1 -4.085 14.2975 -6.1275
1 -2.0425 14.2975 -8.17
1 0 14.2975 -6.1275
1 2.0425 14.2975 -8.17
1 4.085 14.2975 -6.1275
1 6.1275 14.2975 -8.17
1 8.17 12.255 -8.17
1 8.17 14.2975 -6.1275
1 10.2125 12.255 -6.1275
1 10.2125 14.2975 -8.17
1 12.255 12.255 -8.17
1 12.255 14.2975 -6.1275
1 14.2975 12.255 -6.1275
1 -10.2125 16.34 -6.1275
1 -8.17 16.34 -8.17
1 -8.17 18.3825 -6.1275
1 -6.1275 16.34 -6.1275
1 -4.085 16.34 -8.17
1 -4.085 18.3825 -6.1275
1 -2.0425 16.34 -6.1275
1 0 16.34 -8.17
1 0 18.3825 -6.1275
1 2.0425 16.34 -6.1275
1 4.085 16.34 -8.17
1 4.085 18.3825 -6.1275
1 6.1275 16.34 -6.1275
1 8.17 16.34 -8.17
1 8.17 18.3825 -6.1275
1 10.2125 16.34 -6.1275
1 -12.255 -18.3825 -2.0425
1 -10.2125 -18.3825 -4.085
1 -8.17 -18.3825 -2.0425
1 -6.1275 -18.3825 -4.085
1 -4.085 -18.3825 -2.0425
1 -2.0425 -18.3825 -4.085
1 0 -18.3825 -2.0425
1 2.0425 -18.3825 -4.085
1 4.085 -18.3825 -2.0425
1 6.1275 -18.3825 -4.085
1 8.17 -18.3825 -2.0425
1 10.2125 -18.3825 -4.085
1 12.255 -18.3825 -2.0425
1 -14.2975 -16.34 -2.0425
1 -14.2975 -14.2975 -4.085
1 -12.255 -16.34 -4.085
1 -12.255 -14.2975 -2.0425
1 -10.2125 -16.34 -2.0425
1 -10.2125 -14.2975 -4.085
1 -8.17 -16.34 -4.085
1 -6.1275 -16.34 -2.0425
1 -4.085 -16.34 -4.085
1 -2.0425 -16.34 -2.0425
1 0 -16.34 -4.085
1 2.0425 -16.34 -2.0425
1 4.085 -16.34 -4.085
1 6.1275 -16.34 -2.0425
1 8.17 -16.34 -4.085
1 10.2125 -16.34 -2.0425
1 10.2125 -14.2975 -4.085
1 12.255 -16.34 -4.085
1 12.255 -14.2975 -2.0425
1 14.2975 -16.34 -2.0425
1 14.2975 -14.2975 -4.085
1 -16.34 -12.255 -4.085
1 -16.34 -10.2125 -2.0425
1 -14.2975 -12.255 -2.0425
1 -14.2975 -10.2125 -4.085
1 -12.255 -12.255 -4.085
1 12.255 -12.255 -4.085
1 14.2975 -12.255 -2.0425
1 14.2975 -10.2125 -4.085
1 16.34 -12.255 -4.085
1 16.34 -10.2125 -2.0425
1 -18.3825 -6.1275 -4.085
1 -16.34 -8.17 -4.085
1 -16.34 -6.1275 -2.0425
1 -14.2975 -8.17 -2.0425
1 -14.2975 -6.1275 -4.085
1 14.2975 -8.17 -2.0425
1 14.2975 -6.1275 -4.085
1 16.34 -8.17 -4.085
1 16.34 -6.1275 -2.0425
1 18.3825 -6.1275 -4.085
1 -18.3825 -4.085 -2.0425
1 -18.3825 -2.0425 -4.085
1 -16.34 -4.085 -4.085
1 -16.34 -2.0425 -2.0425
1 16.34 -4.085 -4.085
1 16.34 -2.0425 -2.0425
1 18.3825 -4.085 -2.0425
1 18.3825 -2.0425 -4.085
1 -20.425 0 -4.085
1 -18.3825 0 -2.0425
1 -18.3825 2.0425 -4.085
1 -16.34 0 -4.085
1 -16.34 2.0425 -2.0425
1 16.34 0 -4.085
1 16.34 2.0425 -2.0425
1 18.3825 0 -2.0425
1 18.3825 2.0425 -4.085
1 20.425 0 -4.085
1 -18.3825 4.085 -2.0425
1 -18.3825 6.1275 -4.085
1 -16.34 4.085 -4.085
1 -16.34 6.1275 -2.0425
1 -14.2975 6.1275 -4.085
1 14.2975 6.1275 -4.085
1 16.34 4.085 -4.085
1 16.34 6.1275 -2.0425
1 18.3825 4.085 -2.0425
1 18.3825 6.1275 -4.085
1 -16.34 8.17 -4.085
1 -16.34 10.2125 -2.0425
1 -14.2975 8.17 -2.0425
1 -14.2975 10.2125 -4.085
1 14.2975 8.17 -2.0425
1 14.2975 10.2125 -4.085
1 16.34 8.17 -4.085
1 16.34 10.2125 -2.0425
1 -16.34 12.255 -4.085
1 -14.2975 12.255 -2.0425
1 -14.2975 14.2975 -4.085
1 -12.255 12.255 -4.085
1 -12.255 14.2975 -2.0425
1 -10.2125 14.2975 -4.085
1 10.2125 14.2975 -4.085
1 12.255 12.255 -4.085
1 12.255 14.2975 -2.0425
1 14.2975 12.255 -2.0425
1 14.2975 14.2975 -4.085
1 16.34 12.255 -4.085
1 -14.2975 16.34 -2.0425
1 -12.255 16.34 -4.085
1 -12.255 18.3825 -2.0425
1 -10.2125 16.34 -2.0425
1 -10.2125 18.3825 -4.085
1 -8.17 16.34 -4.085
1 -8.17 18.3825 -2.0425
1 -6.1275 16.34 -2.0425
1 -6.1275 18.3825 -4.085
1 -4.085 16.34 -4.085
1 -4.085 18.3825 -2.0425
1 -2.0425 16.34 -2.0425
1 -2.0425 18.3825 -4.085
1 0 16.34 -4.085
1 0 18.3825 -2.0425
1 2.0425 16.34 -2.0425
1 2.0425 18.3825 -4.085
1 4.085 16.34 -4.085
1 4.085 18.3825 -2.0425
1 6.1275 16.34 -2.0425
1 6.1275 18.3825 -4.085
1 8.17 16.34 -4.085
1 8.17 18.3825 -2.0425
1 10.2125 16.34 -2.0425
1 10.2125 18.3825 -4.085
1 12.255 16.34 -4.085
1 12.255 18.3825 -2.0425
1 14.2975 16.34 -2.0425
1 -12.255 -20.425 0
1 -12.255 -18.3825 2.0425
1 -10.2125 -18.3825 0
1 -8.17 -20.425 0
1 -8.17 -18.3825 2.0425
1 -6.1275 -18.3825 0
1 -4.085 -20.425 0
1 -4.085 -18.3825 2.0425
1 -2.0425 -18.3825 0
1 0 -20.425 0
1 0 -18.3825 2.0425
1 2.0425 -18.3825 0
1 4.085 -20.425 0
1 4.085 -18.3825 2.0425
1 6.1275 -18.3825 0
1 8.17 -20.425 0
1 8.17 -18.3825 2.0425
1 10.2125 -18.3825 0
1 12.255 -20.425 0
1 12.255 -18.3825 2.0425
1 -14.2975 -16.34 2.0425
1 -14.2975 -14.2975 0
1 -12.255 -16.34 0
1 -12.255 -14.2975 2.0425
1 -10.2125 -16.34 2.0425
1 -8.17 -16.34 0
1 -6.1275 -16.34 2.0425
1 -4.085 -16.34 0
1 -2.0425 -16.34 2.0425
1 0 -16.34 0
1 2.0425 -16.34 2.0425
1 4.085 -16.34 0
1 6.1275 -16.34 2.0425
1 8.17 -16.34 0
1 10.2125 -16.34 2.0425
1 12.255 -16.34 0
1 12.255 -14.2975 2.0425
1 14.2975 -16.34 2.0425
1 14.2975 -14.2975 0
1 -16.34 -12.255 0
1 -16.34 -10.2125 2.0425
1 -14.2975 -12.255 2.0425
1 -14.2975 -10.2125 0
1 -12.255 -12.255 0
1 12.255 -12.255 0
1 14.2975 -12.255 2.0425
1 14.2975 -10.2125 0
1 16.34 -12.255 0
1 16.34 -10.2125 2.0425
1 -18.3825 -6.1275 0
1 -16.34 -8.17 0
1 -16.34 -6.1275 2.0425
1 -14.2975 -8.17 2.0425
1 -14.2975 -6.1275 0
1 14.2975 -8.17 2.0425
1 14.2975 -6.1275 0
1 16.34 -8.17 0
1 16.34 -6.1275 2.0425
1 18.3825 -6.1275 0
1 -18.3825 -4.085 2.0425
1 -18.3825 -2.0425 0
1 -16.34 -4.085 0
1 -16.34 -2.0425 2.0425
1 16.34 -4.085 0
1 16.34 -2.0425 2.0425
1 18.3825 -4.085 2.0425
1 18.3825 -2.0425 0
1 -20.425 0 0
1 -18.3825 0 2.0425
1 -18.3825 2.0425 0
1 -16.34 0 0
1 -16.34 2.0425 2.0425
1 16.34 0 0
1 16.34 2.0425 2.0425
1 18.3825 0 2.0425
1 18.3825 2.0425 0
1 20.425 0 0
1 -18.3825 4.085 2.0425
1 -18.3825 6.1275 0
1 -16.34 4.085 0
1 -16.34 6.1275 2.0425
1 -14.2975 6.1275 0
1 14.2975 6.1275 0
1 16.34 4.085 0
1 16.34 6.1275 2.0425
1 18.3825 4.085 2.0425
1 18.3825 6.1275 0
1 -16.34 8.17 0
1 -16.34 10.2125 2.0425
1 -14.2975 8.17 2.0425
1 -14.2975 10.2125 0
1 14.2975 8.17 2.0425
1 14.2975 10.2125 0
1 16.34 8.17 0
1 16.34 10.2125 2.0425
1 -16.34 12.255 0
1 -14.2975 12.255 2.0425
1 -14.2975 14.2975 0
1 -12.255 12.255 0
1 -12.255 14.2975 2.0425
1 12.255 12.255 0
1 12.255 14.2975 2.0425
1 14.2975 12.255 2.0425
1 14.2975 14.2975 0
1 16.34 12.255 0
1 -14.2975 16.34 2.0425
1 -12.255 16.34 0
1 -12.255 18.3825 2.0425
1 -10.2125 16.34 2.0425
1 -10.2125 18.3825 0
1 -8.17 16.34 0
1 -8.17 18.3825 2.0425
1 -6.1275 16.34 2.0425
1 -6.1275 18.3825 0
1 -4.085 16.34 0
1 -4.085 18.3825 2.0425
1 -2.0425 16.34 2.0425
1 -2.0425 18.3825 0
1 0 16.34 0
1 0 18.3825 2.0425
1 2.0425 16.34 2.0425
1 2.0425 18.3825 0
1 4.085 16.34 0
1 4.085 18.3825 2.0425
1 6.1275 16.34 2.0425
1 6.1275 18.3825 0
1 8.17 16.34 0
1 8.17 18.3825 2.0425
1 10.2125 16.34 2.0425
1 10.2125 18.3825 0
1 12.255 16.34 0
1 12.255 18.3825 2.0425
1 14.2975 16.34 2.0425
1 -12.255 20.425 0
1 -8.17 20.425 0
1 -4.085 20.425 0
1 0 20.425 0
1 4.085 20.425 0
1 8.17 20.425 0
1 12.255 20.425 0
1 -10.2125 -18.3825 4.085
1 -8.17 -18.3825 6.1275
1 -6.1275 -18.3825 4.085
1 -4.085 -18.3825 6.1275
1 -2.0425 -18.3825 4.085
1 0 -18.3825 6.1275
1 2.0425 -18.3825 4.085
1 4.085 -18.3825 6.1275
1 6.1275 -18.3825 4.085
1 8.17 -18.3825 6.1275
1 10.2125 -18.3825 4.085
1 -14.2975 -14.2975 4.085
1 -12.255 -16.34 4.085
1 -12.255 -14.2975 6.1275
1 -10.2125 -16.34 6.1275
1 -10.2125 -14.2975 4.085
1 -8.17 -16.34 4.085
1 -8.17 -14.2975 6.1275
1 -6.1275 -16.34 6.1275
1 -4.085 -16.34 4.085
1 -4.085 -14.2975 6.1275
1 -2.0425 -16.34 6.1275
1 0 -16.34 4.085
1 0 -14.2975 6.1275
1 2.0425 -16.34 6.1275
1 4.085 -16.34 4.085
1 4.085 -14.2975 6.1275
1 6.1275 -16.34 6.1275
1 8.17 -16.34 4.085
1 8.17 -14.2975 6.1275
1 10.2125 -16.34 6.1275
1 10.2125 -14.2975 4.085
1 12.255 -16.34 4.085
1 12.255 -14.2975 6.1275
1 14.2975 -14.2975 4.085
1 -16.34 -12.255 4.085
1 -16.34 -10.2125 6.1275
1 -14.2975 -12.255 6.1275
1 -14.2975 -10.2125 4.085
1 -12.255 -12.255 4.085
1 -12.255 -10.2125 6.1275
1 -10.2125 -12.255 6.1275
1 10.2125 -12.255 6.1275
1 12.255 -12.255 4.085
1 12.255 -10.2125 6.1275
1 14.2975 -12.255 6.1275
1 14.2975 -10.2125 4.085
1 16.34 -12.255 4.085
1 16.34 -10.2125 6.1275
1 -18.3825 -6.1275 4.085
1 -16.34 -8.17 4.085
1 -16.34 -6.1275 6.1275
1 -14.2975 -8.17 6.1275
1 -14.2975 -6.1275 4.085
1 14.2975 -8.17 6.1275
1 14.2975 -6.1275 4.085
1 16.34 -8.17 4.085
1 16.34 -6.1275 6.1275
1 18.3825 -6.1275 4.085
1 -18.3825 -4.085 6.1275
1 -18.3825 -2.0425 4.085
1 -16.34 -4.085 4.085
1 -16.34 -2.0425 6.1275
1 16.34 -4.085 4.085
1 16.34 -2.0425 6.1275
1 18.3825 -4.085 6.1275
1 18.3825 -2.0425 4.085
1 -20.425 0 4.085
1 -18.3825 0 6.1275
1 -18.3825 2.0425 4.085
1 -16.34 0 4.085
1 -16.34 2.0425 6.1275
1 16.34 0 4.085
1 16.34 2.0425 6.1275
1 18.3825 0 6.1275
1 18.3825 2.0425 4.085
1 20.425 0 4.085
1 -18.3825 4.085 6.1275
1 -18.3825 6.1275 4.085
1 -16.34 4.085 4.085
1 -16.34 6.1275 6.1275
1 -14.2975 6.1275 4.085
1 14.2975 6.1275 4.085
1 16.34 4.085 4.085
1 16.34 6.1275 6.1275
1 18.3825 4.085 6.1275
1 18.3825 6.1275 4.085
1 -16.34 8.17 4.085
1 -16.34 10.2125 6.1275
1 -14.2975 8.17 6.1275
1 -14.2975 10.2125 4.085
1 -12.255 10.2125 6.1275
1 12.255 10.2125 6.1275
1 14.2975 8.17 6.1275
1 14.2975 10.2125 4.085
1 16.34 8.17 4.085
1 16.34 10.2125 6.1275
1 -16.34 12.255 4.085
1 -14.2975 12.255 6.1275
1 -14.2975 14.2975 4.085
1 -12.255 12.255 4.085
1 -12.255 14.2975 6.1275
1 -10.2125 12.255 6.1275
1 -10.2125 14.2975 4.085
1 -8.17 14.2975 6.1275
1 -4.085 14.2975 6.1275
1 0 14.2975 6.1275
1 4.085 14.2975 6.1275
1 8.17 14.2975 6.1275
1 10.2125 12.255 6.1275
1 10.2125 14.2975 4.085
1 12.255 12.255 4.085
1 12.255 14.2975 6.1275
1 14.2975 12.255 6.1275
1 14.2975 14.2975 4.085
1 16.34 12.255 4.085
1 -12.255 16.34 4.085
1 -10.2125 16.34 6.1275
1 -10.2125 18.3825 4.085
1 -8.17 16.34 4.085
1 -8.17 18.3825 6.1275
1 -6.1275 16.34 6.1275
1 -6.1275 18.3825 4.085
1 -4.085 16.34 4.085
1 -4.085 18.3825 6.1275
1 -2.0425 16.34 6.1275
1 -2.0425 18.3825 4.085
1 0 16.34 4.085
1 0 18.3825 6.1275
1 2.0425 16.34 6.1275
1 2.0425 18.3825 4.085
1 4.085 16.34 4.085
1 4.085 18.3825 6.1275
1 6.1275 16.34 6.1275
1 6.1275 18.3825 4.085
1 8.17 16.34 4.085
1 8.17 18.3825 6.1275
1 10.2125 16.34 6.1275
1 10.2125 18.3825 4.085
1 12.255 16.34 4.085
1 -10.2125 -14.2975 8.17
1 -8.17 -16.34 8.17
1 -8.17 -14.2975 10.2125
1 -6.1275 -16.34 10.2125
1 -6.1275 -14.2975 8.17
1 -4.085 -16.34 8.17
1 -4.085 -14.2975 10.2125
1 -2.0425 -16.34 10.2125
1 -2.0425 -14.2975 8.17
1 0 -16.34 8.17
1 0 -14.2975 10.2125
1 2.0425 -16.34 10.2125
1 2.0425 -14.2975 8.17
1 4.085 -16.34 8.17
1 4.085 -14.2975 10.2125
1 6.1275 -16.34 10.2125
1 6.1275 -14.2975 8.17
1 8.17 -16.34 8.17
1 8.17 -14.2975 10.2125
1 10.2125 -14.2975 8.17
1 -14.2975 -10.2125 8.17
1 -12.255 -12.255 8.17
1 -12.255 -10.2125 10.2125
1 -10.2125 -12.255 10.2125
1 -10.2125 -10.2125 8.17
1 -8.17 -12.255 8.17
1 -8.17 -10.2125 10.2125
1 -6.1275 -12.255 10.2125
1 6.1275 -12.255 10.2125
1 8.17 -12.255 8.17
1 8.17 -10.2125 10.2125
1 10.2125 -12.255 10.2125
1 10.2125 -10.2125 8.17
1 12.255 -12.255 8.17
1 12.255 -10.2125 10.2125
1 14.2975 -10.2125 8.17
1 -18.3825 -6.1275 8.17
1 -16.34 -8.17 8.17
1 -16.34 -6.1275 10.2125
1 -14.2975 -8.17 10.2125
1 -14.2975 -6.1275 8.17
1 -12.255 -8.17 8.17
1 -12.255 -6.1275 10.2125
1 -10.2125 -8.17 10.2125
1 10.2125 -8.17 10.2125
1 12.255 -8.17 8.17
1 12.255 -6.1275 10.2125
1 14.2975 -8.17 10.2125
1 14.2975 -6.1275 8.17
1 16.34 -8.17 8.17
1 16.34 -6.1275 10.2125
1 18.3825 -6.1275 8.17
1 -18.3825 -4.085 10.2125
1 -18.3825 -2.0425 8.17
1 -16.34 -4.085 8.17
1 -16.34 -2.0425 10.2125
1 -14.2975 -4.085 10.2125
1 14.2975 -4.085 10.2125
1 16.34 -4.085 8.17
1 16.34 -2.0425 10.2125
1 18.3825 -4.085 10.2125
1 18.3825 -2.0425 8.17
1 -20.425 0 8.17
1 -18.3825 0 10.2125
1 -18.3825 2.0425 8.17
1 -16.34 0 8.17
1 -16.34 2.0425 10.2125
1 16.34 0 8.17
1 16.34 2.0425 10.2125
1 18.3825 0 10.2125
1 18.3825 2.0425 8.17
1 20.425 0 8.17
1 -18.3825 4.085 10.2125
1 -18.3825 6.1275 8.17
1 -16.34 4.085 8.17
1 -16.34 6.1275 10.2125
1 -14.2975 4.085 10.2125
1 -14.2975 6.1275 8.17
1 -12.255 6.1275 10.2125
1 12.255 6.1275 10.2125
1 14.2975 4.085 10.2125
1 14.2975 6.1275 8.17
1 16.34 4.085 8.17
1 16.34 6.1275 10.2125
1 18.3825 4.085 10.2125
1 18.3825 6.1275 8.17
1 -16.34 8.17 8.17
1 -14.2975 8.17 10.2125
1 -14.2975 10.2125 8.17
1 -12.255 8.17 8.17
1 -12.255 10.2125 10.2125
1 -10.2125 8.17 10.2125
1 -10.2125 10.2125 8.17
1 -8.17 10.2125 10.2125
1 8.17 10.2125 10.2125
1 10.2125 8.17 10.2125
1 10.2125 10.2125 8.17
1 12.255 8.17 8.17
1 12.255 10.2125 10.2125
1 14.2975 8.17 10.2125
1 14.2975 10.2125 8.17
1 16.34 8.17 8.17
1 -12.255 12.255 8.17
1 -10.2125 12.255 10.2125
1 -10.2125 14.2975 8.17
1 -8.17 12.255 8.17
1 -8.17 14.2975 10.2125
1 -6.1275 12.255 10.2125
1 -6.1275 14.2975 8.17
1 -4.085 14.2975 10.2125
1 -2.0425 14.2975 8.17
1 0 14.2975 10.2125
1 2.0425 14.2975 8.17
1 4.085 14.2975 10.2125
1 6.1275 12.255 10.2125
1 6.1275 14.2975 8.17
1 8.17 12.255 8.17
1 8.17 14.2975 10.2125
1 10.2125 12.255 10.2125
1 10.2125 14.2975 8.17
1 12.255 12.255 8.17
1 -8.17 16.34 8.17
1 -6.1275 16.34 10.2125
1 -4.085 16.34 8.17
1 -2.0425 16.34 10.2125
1 0 16.34 8.17
1 2.0425 16.34 10.2125
1 4.085 16.34 8.17
1 6.1275 16.34 10.2125
1 8.17 16.34 8.17
1 -6.1275 -14.2975 12.255
1 -4.085 -16.34 12.255
1 -4.085 -14.2975 14.2975
1 -2.0425 -14.2975 12.255
1 0 -16.34 12.255
1 0 -14.2975 14.2975
1 2.0425 -14.2975 12.255
1 4.085 -16.34 12.255
1 4.085 -14.2975 14.2975
1 6.1275 -14.2975 12.255
1 -10.2125 -10.2125 12.255
1 -8.17 -12.255 12.255
1 -8.17 -10.2125 14.2975
1 -6.1275 -12.255 14.2975
1 -6.1275 -10.2125 12.255
1 -4.085 -12.255 12.255
1 -4.085 -10.2125 14.2975
1 -2.0425 -12.255 14.2975
1 0 -12.255 12.255
1 2.0425 -12.255 14.2975
1 4.085 -12.255 12.255
1 4.085 -10.2125 14.2975
1 6.1275 -12.255 14.2975
1 6.1275 -10.2125 12.255
1 8.17 -12.255 12.255
1 8.17 -10.2125 14.2975
1 10.2125 -10.2125 12.255
1 -14.2975 -6.1275 12.255
1 -12.255 -8.17 12.255
1 -12.255 -6.1275 14.2975
1 -10.2125 -8.17 14.2975
1 -10.2125 -6.1275 12.255
1 -8.17 -8.17 12.255
1 -8.17 -6.1275 14.2975
1 -6.1275 -8.17 14.2975
1 6.1275 -8.17 14.2975
1 8.17 -8.17 12.255
1 8.17 -6.1275 14.2975
1 10.2125 -8.17 14.2975
1 10.2125 -6.1275 12.255
1 12.255 -8.17 12.255
1 12.255 -6.1275 14.2975
1 14.2975 -6.1275 12.255
1 -18.3825 -2.0425 12.255
1 -16.34 -4.085 12.255
1 -16.34 -2.0425 14.2975
1 -14.2975 -4.085 14.2975
1 -14.2975 -2.0425 12.255
1 -12.255 -4.085 12.255
1 -12.255 -2.0425 14.2975
1 -10.2125 -4.085 14.2975
1 -8.17 -2.0425 14.2975
1 -6.1275 -4.085 14.2975
1 6.1275 -4.085 14.2975
1 8.17 -2.0425 14.2975
1 10.2125 -4.085 14.2975
1 12.255 -4.085 12.255
1 12.255 -2.0425 14.2975
1 14.2975 -4.085 14.2975
1 14.2975 -2.0425 12.255
1 16.34 -4.085 12.255
1 16.34 -2.0425 14.2975
1 18.3825 -2.0425 12.255
1 -20.425 0 12.255
1 -18.3825 2.0425 12.255
1 -16.34 0 12.255
1 -16.34 2.0425 14.2975
1 -14.2975 0 14.2975
1 -14.2975 2.0425 12.255
1 -12.255 0 12.255
1 -12.255 2.0425 14.2975
1 -10.2125 0 14.2975
1 -8.17 2.0425 14.2975
1 -6.1275 0 14.2975
1 6.1275 0 14.2975
1 8.17 2.0425 14.2975
1 10.2125 0 14.2975
1 12.255 0 12.255
1 12.255 2.0425 14.2975
1 14.2975 0 14.2975
1 14.2975 2.0425 12.255
1 16.34 0 12.255
1 16.34 2.0425 14.2975
1 18.3825 2.0425 12.255
1 20.425 0 12.255
1 -16.34 4.085 12.255
1 -14.2975 4.085 14.2975
1 -14.2975 6.1275 12.255
1 -12.255 4.085 12.255
1 -12.255 6.1275 14.2975
1 -10.2125 4.085 14.2975
1 -10.2125 6.1275 12.255
1 -8.17 6.1275 14.2975
1 -6.1275 4.085 14.2975
1 6.1275 4.085 14.2975
1 8.17 6.1275 14.2975
1 10.2125 4.085 14.2975
1 10.2125 6.1275 12.255
1 12.255 4.085 12.255
1 12.255 6.1275 14.2975
1 14.2975 4.085 14.2975
1 14.2975 6.1275 12.255
1 16.34 4.085 12.255
1 -12.255 8.17 12.255
1 -10.2125 8.17 14.2975
1 -10.2125 10.2125 12.255
1 -8.17 8.17 12.255
1 -8.17 10.2125 14.2975
1 -6.1275 8.17 14.2975
1 -6.1275 10.2125 12.255
1 -4.085 10.2125 14.2975
1 4.085 10.2125 14.2975
1 6.1275 8.17 14.2975
1 6.1275 10.2125 12.255
1 8.17 8.17 12.255
1 8.17 10.2125 14.2975
1 10.2125 8.17 14.2975
1 10.2125 10.2125 12.255
1 12.255 8.17 12.255
1 -8.17 12.255 12.255
1 -6.1275 12.255 14.2975
1 -6.1275 14.2975 12.255
1 -4.085 12.255 12.255
1 -4.085 14.2975 14.2975
1 -2.0425 12.255 14.2975
1 -2.0425 14.2975 12.255
1 0 12.255 12.255
1 0 14.2975 14.2975
1 2.0425 12.255 14.2975
1 2.0425 14.2975 12.255
1 4.085 12.255 12.255
1 4.085 14.2975 14.2975
1 6.1275 12.255 14.2975
1 6.1275 14.2975 12.255
1 8.17 12.255 12.255
1 -4.085 16.34 12.255
1 0 16.34 12.255
1 4.085 16.34 12.255
1 -2.0425 -14.2975 16.34
1 2.0425 -14.2975 16.34
1 -6.1275 -10.2125 16.34
1 -4.085 -12.255 16.34
1 -4.085 -10.2125 18.3825
1 -2.0425 -12.255 18.3825
1 -2.0425 -10.2125 16.34
1 0 -12.255 16.34
1 0 -10.2125 18.3825
1 2.0425 -12.255 18.3825
1 2.0425 -10.2125 16.34
1 4.085 -12.255 16.34
1 4.085 -10.2125 18.3825
1 6.1275 -10.2125 16.34
1 -10.2125 -6.1275 16.34
1 -8.17 -8.17 16.34
1 -6.1275 -8.17 18.3825
1 -6.1275 -6.1275 16.34
1 -4.085 -8.17 16.34
1 -4.085 -6.1275 18.3825
1 -2.0425 -8.17 18.3825
1 -2.0425 -6.1275 16.34
1 0 -8.17 16.34
1 0 -6.1275 18.3825
1 2.0425 -8.17 18.3825
1 2.0425 -6.1275 16.34
1 4.085 -8.17 16.34
1 4.085 -6.1275 18.3825
1 6.1275 -8.17 18.3825
1 6.1275 -6.1275 16.34
1 8.17 -8.17 16.34
1 10.2125 -6.1275 16.34
1 -12.255 -4.085 16.34
1 -10.2125 -2.0425 16.34
1 -8.17 -4.085 16.34
1 -6.1275 -4.085 18.3825
1 -6.1275 -2.0425 16.34
1 -4.085 -4.085 16.34
1 -4.085 -2.0425 18.3825
1 -2.0425 -4.085 18.3825
1 -2.0425 -2.0425 16.34
1 0 -4.085 16.34
1 0 -2.0425 18.3825
1 2.0425 -4.085 18.3825
1 2.0425 -2.0425 16.34
1 4.085 -4.085 16.34
1 4.085 -2.0425 18.3825
1 6.1275 -4.085 18.3825
1 6.1275 -2.0425 16.34
1 8.17 -4.085 16.34
1 10.2125 -2.0425 16.34
1 12.255 -4.085 16.34
1 -12.255 0 16.34
1 -10.2125 2.0425 16.34
1 -8.17 0 16.34
1 -6.1275 0 18.3825
1 -6.1275 2.0425 16.34
1 -4.085 0 16.34
1 -4.085 2.0425 18.3825
1 -2.0425 0 18.3825
1 -2.0425 2.0425 16.34
1 0 0 16.34
1 0 2.0425 18.3825
1 2.0425 0 18.3825
1 2.0425 2.0425 16.34
1 4.085 0 16.34
1 4.085 2.0425 18.3825
1 6.1275 0 18.3825
1 6.1275 2.0425 16.34
1 8.17 0 16.34
1 10.2125 2.0425 16.34
1 12.255 0 16.34
1 -12.255 4.085 16.34
1 -10.2125 6.1275 16.34
1 -8.17 4.085 16.34
1 -6.1275 4.085 18.3825
1 -6.1275 6.1275 16.34
1 -4.085 4.085 16.34
1 -4.085 6.1275 18.3825
1 -2.0425 4.085 18.3825
1 -2.0425 6.1275 16.34
1 0 4.085 16.34
1 0 6.1275 18.3825
1 2.0425 4.085 18.3825
1 2.0425 6.1275 16.34
1 4.085 4.085 16.34
1 4.085 6.1275 18.3825
1 6.1275 4.085 18.3825
1 6.1275 6.1275 16.34
1 8.17 4.085 16.34
1 10.2125 6.1275 16.34
1 12.255 4.085 16.34
1 -8.17 8.17 16.34
1 -6.1275 8.17 18.3825
1 -6.1275 10.2125 16.34
1 -4.085 8.17 16.34
1 -4.085 10.2125 18.3825
1 -2.0425 8.17 18.3825
1 -2.0425 10.2125 16.34
1 0 8.17 16.34
1 0 10.2125 18.3825
1 2.0425 8.17 18.3825
1 2.0425 10.2125 16.34
1 4.085 8.17 16.34
1 4.085 10.2125 18.3825
1 6.1275 8.17 18.3825
1 6.1275 10.2125 16.34
1 8.17 8.17 16.34
1 -4.085 12.255 16.34
1 -2.0425 12.255 18.3825
1 -2.0425 14.2975 16.34
1 0 12.255 16.34
1 2.0425 12.255 18.3825
1 2.0425 14.2975 16.34
1 4.085 12.255 16.34
1 0 -12.255 20.425
1 0 -8.17 20.425
1 0 -4.085 20.425
1 0 0 20.425
1 0 4.085 20.425
1 0 8.17 20.425
1 0 12.255 20.425
5 -6.21705 18.0216 -7.26995
3 -6.88124 19.0743 -8.59223
3 -6.74964 20.596 -8.43298
3 -7.52211 21.1954 -9.61922
3 -7.59957 22.7287 -9.55453
3 -8.61351 23.159 -10.6386
2 -8.92268 24.6748 -10.6573
6 -8.30258 25.5814 -9.74561
6 -9.90875 25.1584 -11.5671
7 -9.5402 25.8604 -12.077
5 13.9008 -8.65952 -13.0195
3 15.388 -9.44604 -13.6895
3 15.3424 -9.76206 -15.1934
3 16.7194 -10.271 -15.6603
3 16.6813 -10.5127 -17.1822
3 18.1038 -10.8218 -17.703
2 18.1522 -11.015 -19.2409
6 16.9791 -10.9076 -20.0483
6 19.4106 -11.245 -19.8711
7 19.8585 -10.4169 -19.9581
5 -6.03747 -18.1846 -7.36921
3 -7.0152 -19.2233 -8.5047
3 -6.54691 -20.6035 -8.99694
3 -7.75463 -21.0741 -9.829
3 -7.53809 -22.3321 -10.688
3 -8.91806 -22.5997 -11.3368
2 -8.95633 -23.7162 -12.4061
6 -7.78055 -24.4222 -12.7988
6 -10.1993 -24.0206 -13.0351
7 -10.3517 -24.9504 -12.9628
5 -3.73508 8.03801 -19.3208
3 -4.3291 7.60394 -20.9792
3 -5.34667 8.60286 -21.5502
3 -5.92989 8.05011 -22.8612
3 -6.94507 9.06622 -23.4087
3 -7.63854 8.49481 -24.6638