LAMMPS data file via write_data, version 17 Apr 2014, timestep = 58

3815 atoms
6 atom types
1680 bonds
5 bond types
1470 angles
5 angle types
1260 dihedrals
5 dihedral types

-2.0809999999999999e+01 1.0081000000000000e+02 xlo xhi
-2.0507500000000000e+01 1.0050749999999999e+02 ylo yhi
-2.0045500000000001e+01 1.0004550000000000e+02 zlo zhi

Masses

1 107.868
2 12.0112
3 12.0112
4 32.064
5 15.9994
6 1.00797

Bond Coeffs # class2

1 1.53 299.67 -501.77 679.81
2 1.53 299.67 -501.77 679.81
3 1.823 225.277 -327.706 488.972
4 1.42 400.395 -835.195 1313.01
5 0.965 532.506 -1282.9 2004.77

Angle Coeffs # class2

1 112.67 39.516 -7.443 -9.5583
2 112.67 39.516 -7.443 -9.5583
3 112.564 47.0276 -10.679 -10.1687
4 105.8 52.7061 -12.109 -9.8681
5 111.27 54.5381 -8.3642 -13.0838

BondBond Coeffs

1 0 1.53 1.53
2 0 1.53 1.53
3 10.9186 1.53 1.823
4 -9.6879 1.42 0.965
5 11.4318 1.53 1.42

BondAngle Coeffs

1 8.016 8.016 1.53 1.53
2 8.016 8.016 1.53 1.53
3 -3.5621 22.3865 1.53 1.823
4 28.58 18.9277 1.42 0.965
5 2.6868 20.4033 1.53 1.42

Dihedral Coeffs # class2

1 0 0 0.0514 0 -0.143 0
2 0 0 0.0514 0 -0.143 0
3 -0.7017 0 0.0201 0 0.104 0
4 0 0 0 0 0.158 0
5 -0.6732 0 -0.4778 0 -0.167 0

AngleAngleTorsion Coeffs

1 -22.045 112.67 112.67
2 -22.045 112.67 112.67
3 -26.71 112.564 112.67
4 0 112.564 111.27
5 -12.1038 105.8 111.27

EndBondTorsion Coeffs

1 -0.0732 0 0 -0.0732 0 0 1.53 1.53
2 -0.0732 0 0 -0.0732 0 0 1.53 1.53
3 -0.7991 -0.959 0.5855 -0.1586 -0.7244 -0.2608 1.823 1.53
4 0 0 0 0 0 0 1.823 1.42
5 0 0.5343 0.9025 -0.58 0.9004 0 0.965 1.53

MiddleBondTorsion Coeffs

1 -17.787 -7.1877 0 1.53
2 -17.787 -7.1877 0 1.53
3 -4.2593 -5.6468 -3.3835 1.53
4 0 0 0 1.53
5 1.2472 0 0.7485 1.42

BondBond13 Coeffs

1 0 1.53 1.53
2 0 1.53 1.53
3 0 1.823 1.53
4 0 1.823 1.42
5 0 0.965 1.53

AngleTorsion Coeffs

1 0.3886 -0.3139 0.1389 0.3886 -0.3139 0.1389 112.67 112.67
2 0.3886 -0.3139 0.1389 0.3886 -0.3139 0.1389 112.67 112.67
3 1.1179 0.3638 0.9423 -2.0927 -0.1498 -1.7848 112.564 112.67
4 0 0 0 0 0 0 112.564 111.27
5 0.8726 -0.3577 0.3888 -3.5903 2.5225 0.4888 105.8 111.27

Atoms # full

   3798    2134    3   0.000000      53.27355194      16.11510658      61.53890991
   3708    2124    3   0.000000      36.11895370      69.26414490      62.33845139
   3709    2124    2   0.000000      36.70390320      67.32117462      60.81348419
   3710    2124    2   0.000000      37.26809311      65.35469055      59.33297348
   3711    2124    2   0.000000      36.82303619      68.80924225      61.05844879
   3713    2124    2   0.000000      37.38528824      66.84766388      59.54802704
   3726    2126    3   0.000000      65.39370728      57.40183640      24.61992645
   3727    2126    2   0.000000      63.81426239      56.49401474      26.38942146
   3728    2126    2   0.000000      62.25046158      55.59083176      28.16891861
   3729    2126    2   0.000000      63.94334793      57.12451553      25.02050209
   3731    2126    2   0.000000      62.38470840      56.20937347      26.79489708
   3564    2108    3   0.000000      16.94642448      59.98244095      27.27771187
   3801    2134    2   0.000000      53.03896713      17.51691055      60.97152328
   3799    2134    2   0.000000      51.77064133      17.62203217      60.15268326
   3800    2134    2   0.000000      50.25106812      19.07922173      58.75016785
   3803    2134    2   0.000000      51.51388168      19.00052643      59.58160782
   3805    2134    2   0.000000      49.97241592      20.44615746      58.15935516
   3693    2122    2   0.000000      55.41328049      54.34960556      14.59851074
   3690    2122    3   0.000000      56.68236923      54.70232773      13.82011032
   3691    2122    2   0.000000      55.68407059      54.04452896      16.05473518
   3692    2122    2   0.000000      54.77384949      53.43394089      18.32087326
   3695    2122    2   0.000000      54.45332718      53.69853973      16.86706924
   3746    2128    2   0.000000      59.30912781      25.46743393      25.40447998
   3744    2128    3   0.000000      63.48337173      23.25936508      23.56685066
   3745    2128    2   0.000000      61.38178253      24.37905502      24.45215225
   3747    2128    2   0.000000      62.50027847      24.42753029      23.43785667
   3749    2128    2   0.000000      60.37907028      25.50698090      24.32899284
   3546    2106    3   0.000000      13.74407387      23.08034897      29.22751617
   3780    2132    3   0.000000      60.86138153      25.16489029      18.09343910
   3781    2132    2   0.000000      59.34152603      26.79434586      19.31682587
   3782    2132    2   0.000000      57.82997894      28.43065262      20.53551292
   3783    2132    2   0.000000      60.08403778      25.47698593      19.37382698
   3785    2132    2   0.000000      58.57889938      27.11605644      20.58364868
   3764    2130    2   0.000000      27.98085976      66.05435944      30.84428596
   3636    2116    3   0.000000      53.07772064      20.88309288      66.01942444
   3762    2130    3   0.000000      25.03782845      69.88297272      29.22334671
   3763    2130    2   0.000000      26.50001717      67.97123718      30.04916000
   3765    2130    2   0.000000      26.17034531      68.90496826      28.90489197
   3767    2130    2   0.000000      27.61904907      67.00620270      29.72453499
   3654    2118    3   0.000000      69.59058380      35.31838608      57.54930115
   3672    2120    3   0.000000      53.70360565      67.37777710      58.67840195
   3600    2112    3   0.000000      19.86230850      55.12906647      23.53069687
   3582    2110    3   0.000000      28.19197845      21.40377426      14.51220512
   3583    2110    2   0.000000      29.34554100      22.80514908      16.29335022
   3584    2110    2   0.000000      30.48855019      24.19129562      18.08552361
   3585    2110    2   0.000000      29.27987480      22.43274689      14.82771397
   3586    2110    2   0.000000      31.63573647      25.56106377      19.88851166
   3587    2110    2   0.000000      30.41846275      23.82275963      16.61831093
   3589    2110    2   0.000000      31.56493378      25.20488739      18.41709709
   3604    2112    2   0.000000      27.04364395      53.05145645      24.92261887
   3605    2112    2   0.000000      23.70749283      54.91279602      24.16524887
   3607    2112    2   0.000000      26.10284996      54.20226669      24.63176918
   3601    2112    2   0.000000      22.27066994      54.46831131      23.99571419
   3602    2112    2   0.000000      24.66086769      53.77410126      24.45771599
   3603    2112    2   0.000000      21.30867958      55.59854889      23.70092201
   3712    2124    2   0.000000      37.82891464      63.34807968      57.90962982
   3714    2124    2   0.000000      38.34800339      61.29633713      56.53254318
   3715    2124    2   0.000000      37.92837906      64.85018158      58.06784058
   3717    2124    2   0.000000      38.44004059      62.80445480      56.63574219
   3719    2124    2   0.000000      38.81027603      60.72757721      55.20816422
   3721    2125    5  -0.685000      39.78678513      32.93202591      18.54142570
   3723    2125    2   0.000000      40.16549683      32.10743332      19.62987709
   3724    2125    6   0.400000      39.91965485      32.40237045      17.74674988
   3735    2126    2   0.000000      59.20475006      54.33750916      30.23105621
   3737    2126    2   0.000000      57.53326035      53.26364899      31.77274132
   3732    2126    2   0.000000      58.97370911      53.68417740      31.57614708
   3730    2126    2   0.000000      60.64735031      54.67318726      29.92056847
   3733    2126    2   0.000000      60.81690979      55.29394150      28.55097961
   3619    2114    2   0.000000      57.62250519      62.09962463      26.48845482
   3620    2114    2   0.000000      55.68638611      61.12097931      27.80239868
   3621    2114    2   0.000000      58.07351303      62.85027313      25.25370216
   3622    2114    2   0.000000      53.73876953      60.14936066      29.12906456
   3623    2114    2   0.000000      56.12784958      61.86724472      26.56007767
   3625    2114    2   0.000000      54.19132233      60.88793945      27.88423920
   3618    2114    3   0.000000      59.58679581      63.07361221      25.20324135
   3456    2096    3   0.000000      27.12048721      17.41191483      20.62493706
   3384    2088    3   0.000000      13.69278145      33.95471573      19.00835228
   3565    2108    2   0.000000      18.24344444      58.02021027      28.23313332
   3566    2108    2   0.000000      19.53009987      56.07460403      29.21730614
   3567    2108    2   0.000000      17.83031082      58.76845551      26.98476219
   3568    2108    2   0.000000      20.84361267      54.14258575      30.20615387
   3569    2108    2   0.000000      19.12155914      56.81790161      27.96416092
   3571    2108    2   0.000000      20.42381668      54.88212967      28.95382500
   3703    2123    5  -0.685000      25.11340332      23.89397812      45.09430695
   3706    2123    6   0.400000      24.29904556      23.42458725      44.87608337
   3807    2134    2   0.000000      48.43262863      21.83679390      56.67557526
   3809    2134    2   0.000000      46.85842896      23.18937302      55.19177628
   3810    2134    2   0.000000      44.70892715      24.30027008      54.40589523
   3802    2134    2   0.000000      48.73517990      20.48289299      57.28506851
   3804    2134    2   0.000000      47.24707794      21.82685661      55.72909927
   3806    2134    2   0.000000      45.70885849      23.15688896      54.20667648
   3811    2135    5  -0.685000      44.10949326      38.93994522      17.93535995
   3813    2135    2   0.000000      44.43011856      39.43061829      19.22865105
   3814    2135    6   0.400000      44.77944183      39.28280640      17.33142853
   3739    2127    5  -0.685000      51.44205856      35.52380753      19.76306725
   3742    2127    6   0.400000      51.25286102      35.32772446      18.83742714
   3694    2122    2   0.000000      53.95984268      52.74068069      20.61041641
   3696    2122    2   0.000000      53.24402237      51.57323074      22.75782967
   3697    2122    2   0.000000      53.58314514      53.05725098      19.17902565
   3698    2122    2   0.000000      52.52086258      50.03831482      24.68279839
   3699    2122    2   0.000000      52.81866455      52.19277573      21.44069099
   3701    2122    2   0.000000      52.14942551      50.74954605      23.39711952
   3793    2133    5  -0.685000      37.77392197      42.51918030      18.46656418
   3795    2133    2   0.000000      38.16497040      41.76070404      19.60203171
   3796    2133    6   0.400000      38.49139023      42.44932175      17.82503891
   3748    2128    2   0.000000      57.35463715      26.62307930      26.51735497
   3750    2128    2   0.000000      55.59568787      27.95858192      27.75784302
   3752    2128    2   0.000000      54.02648926      29.63473511      28.85917282
   3753    2128    2   0.000000      56.23638535      27.64182854      26.42679977
   3755    2128    2   0.000000      54.30349350      28.76573944      27.66193390
   3638    2116    2   0.000000      49.65440369      22.94258881      62.89407730
   3640    2116    2   0.000000      47.96091461      24.02327919      61.35147095
   3643    2116    2   0.000000      48.89532471      22.85446739      61.58657837
   3751    2128    2   0.000000      58.27021027      26.55833054      25.30485344
   3641    2116    2   0.000000      50.61742401      21.79897881      63.13041306
   3474    2098    3   0.000000      63.14031982      55.74616241      61.42261887
   3366    2086    3   0.000000      60.76579285      55.70290756      17.62135506
   3547    2106    2   0.000000      15.87638283      23.86587715      30.36465645
   3548    2106    2   0.000000      17.96451569      24.68746376      31.53314018
   3549    2106    2   0.000000      15.26953888      23.18419456      29.15689468
   3550    2106    2   0.000000      20.00386620      25.58062935      32.73736572
   3551    2106    2   0.000000      17.38681412      23.97414207      30.32783318
   3553    2106    2   0.000000      19.47565460      24.81031609      31.54211235
   3784    2132    2   0.000000      56.30467987      30.04188728      21.78416824
   3786    2132    2   0.000000      54.74467087      31.59997940      23.06699753
   3787    2132    2   0.000000      57.07880402      28.74058533      21.81289101
   3789    2132    2   0.000000      55.56640625      30.32726288      23.07566643
   3791    2132    2   0.000000      54.00921631      31.84580994      24.36870003
   3775    2131    5  -0.685000      29.01847458      48.02125931      22.10087585
   3778    2131    6   0.400000      29.06006241      48.86095428      21.62582970
   3766    2130    2   0.000000      29.50426674      64.10474396      31.51186180
   3768    2130    2   0.000000      31.02439690      62.08934021      31.97964096
   3769    2130    2   0.000000      29.09363556      65.10599518      30.45306969
   3771    2130    2   0.000000      30.57629395      63.16110611      31.00834656
   3773    2130    2   0.000000      31.98203087      61.10412979      31.34108925
   3757    2129    5  -0.685000      21.55706978      43.71169662      56.20573425
   3760    2129    6   0.400000      21.21893120      43.17361069      56.93180466
   3637    2116    2   0.000000      51.36278534      21.89860535      64.44416809
   3639    2116    2   0.000000      52.33811188      20.76700401      64.68482208
   3674    2120    2   0.000000      50.40354919      63.94097137      56.94662857
   3676    2120    2   0.000000      48.78174591      62.23620987      56.03758240
   3679    2120    2   0.000000      49.40736008      62.84913635      57.27116394
   3655    2118    2   0.000000      67.14807892      36.00085831      57.36894226
   3656    2118    2   0.000000      64.71913910      36.70943451      57.16747665
   3657    2118    2   0.000000      68.16763306      35.14001465      58.08414841
   3658    2118    2   0.000000      62.27575684      37.41977310      56.97186661
   3659    2118    2   0.000000      65.73323059      35.84210968      57.88551712
   3661    2118    2   0.000000      63.30178452      36.55759811      57.68283844
   3492    2100    3   0.000000      22.20825386      64.95947266      55.94588089
   3528    2104    3   0.000000      73.72722626      35.67255402      30.33137131
   3673    2120    2   0.000000      52.04680634      65.65296173      57.82397461
   3675    2120    2   0.000000      52.70595169      66.27436066      59.03561783
   3677    2120    2   0.000000      51.05492783      64.56204224      58.16246033
   3510    2102    3   0.000000      73.90218353      38.25893402      26.91684532
   3420    2092    3   0.000000      64.15822601      54.98850632      20.44664764
   3423    2092    2   0.000000      62.91289902      55.02338028      21.33450127
   3421    2092    2   0.000000      62.54711533      53.66637802      21.89373779
   3422    2092    2   0.000000      60.96947479      52.31210709      23.32660103
   3424    2092    2   0.000000      59.44134521      50.92475891      24.77389526
   3425    2092    2   0.000000      61.31468582      53.67563248      22.77062035
   3427    2092    2   0.000000      59.73849106      52.29477692      24.20569038
   3429    2092    2   0.000000      58.21452713      50.86162567      25.65693665
   3441    2094    2   0.000000      59.25588989      20.46814156      25.11686707
   3439    2094    2   0.000000      58.59502792      21.57611084      25.90954208
   3440    2094    2   0.000000      56.41336441      22.69097519      26.59571648
   3443    2094    2   0.000000      57.08483887      21.59387589      25.79430199
   3438    2094    3   0.000000      60.78150177      20.45861435      25.23973083
   3402    2090    3   0.000000      67.48152161      20.81813622      52.26654053
   3405    2090    2   0.000000      67.52520752      21.93003082      51.21508789
   3403    2090    2   0.000000      66.16134644      22.49672508      50.87879944
   3404    2090    2   0.000000      64.82340240      24.16322899      49.49810028
   3406    2090    2   0.000000      63.46641922      25.81375122      48.10537720
   3407    2090    2   0.000000      66.18916321      23.59732628      49.83696365
   3409    2090    2   0.000000      64.83885193      25.26061249      48.44927597
   3411    2090    2   0.000000      63.46095657      26.90343285      47.04536819
   3418    2091    6   0.400000      33.37225342      44.13115692      63.45517349
   3591    2110    2   0.000000      32.71391296      26.56670189      20.24245071
   3426    2092    2   0.000000      57.98595810      49.48177719      26.23347282
   3431    2092    2   0.000000      56.70510101      49.32873154      27.02305794
   3595    2111    5  -0.685000      33.50466537      38.01461792      19.27820969
   3596    2111    2   0.000000      32.43731308      40.07908630      19.78917503
   3598    2111    6   0.400000      34.30566788      37.60111237      18.93355942
   3609    2112    2   0.000000      28.48740959      53.46275330      25.12427521
     15      15    1   0.000000      40.35720062      26.30010033      26.32939911
   3433    2093    5  -0.685000      46.59783554      22.21193886      27.64176178
   3436    2093    6   0.400000      47.30246353      21.70338631      28.06196213
   3606    2112    2   0.000000      29.41765022      52.30411530      25.42371368
   3611    2112    2   0.000000      30.85725403      52.71697998      25.64959145
   3445    2094    2   0.000000      54.90164948      22.69555283      26.47788620
   3442    2094    2   0.000000      54.20388794      23.77569199      27.28332520
   3444    2094    2   0.000000      51.94982910      24.83148575      27.91817093
   3447    2094    2   0.000000      52.69216919      23.75129128      27.15039062
   3449    2094    2   0.000000      50.44718170      24.79398346      27.70229721
   3400    2089    6   0.400000      37.76170731      36.66930389      65.01992035
   3408    2090    2   0.000000      62.08127975      27.43558311      46.68664551
   3413    2090    2   0.000000      62.07716370      28.51968384      45.61886215
   3577    2109    5  -0.685000      31.56491661      48.83684158      20.83648109
   3578    2109    2   0.000000      32.49242783      46.94822311      21.95107460
   3579    2109    2   0.000000      32.80563354      48.23442078      21.17722321
   3580    2109    6   0.400000      31.73233795      49.43156433      20.09526825
   3581    2109    4   0.000000      33.89219284      46.35751343      22.97334099
   3716    2124    2   0.000000      38.54994965      59.24548721      55.06637192
   3588    2110    2   0.000000      32.77062988      26.90509605      21.71991539
   3597    2111    2   0.000000      33.73542023      39.41571808      19.31413460
      1       1    1   0.000000      38.90420151      32.86759949      22.56710052
     16      16    1   0.000000      38.72050095      30.83169937      24.42589951
     17      17    1   0.000000      38.43579865      28.75900078      26.38220024
     18      18    1   0.000000      36.40629959      30.76070023      26.45730019
     25      25    1   0.000000      34.26399994      32.61500168      26.43720055
     27      27    1   0.000000      36.33340073      32.53290176      24.37649918
     29      29    1   0.000000      38.59220123      32.62590027      26.54570007
   3590    2110    2   0.000000      33.91186523      28.22898102      23.57913208
   3592    2110    4   0.000000      35.00890350      29.69660187      25.71376228
   3593    2110    2   0.000000      33.84758759      27.90396881      22.09662437
   3594    2110    2   0.000000      35.08608627      29.12964249      23.96816444
   3599    2111    4   0.000000      32.68477631      41.18170929      21.22414398
   3718    2124    4   0.000000      38.67387772      57.27111816      53.06939316
   3720    2124    2   0.000000      38.02679443      58.86731339      53.67881012
   3734    2126    2   0.000000      57.26449585      52.49631119      33.04906082
      3       3    1   0.000000      43.03519821      32.94850159      23.01530075
     19      19    1   0.000000      40.67219925      28.62809944      24.56220055
     20      20    1   0.000000      42.97359848      30.52449989      24.73150063
     21      21    1   0.000000      42.94810104      28.09519958      26.20610046
     22      22    1   0.000000      40.73730087      30.69709969      26.51499939
     23      23    1   0.000000      45.40100098      30.47340012      26.20109940
     31      31    1   0.000000      40.92319870      32.82239914      24.69230080
     33      33    1   0.000000      43.13169861      32.62070084      26.55030060
     35      35    1   0.000000      45.26699829      32.78469849      24.55610085
   1917    1917    1   0.000000      41.01710129      31.00569916      22.72360039
   3608    2112    2   0.000000      31.82832909      51.56733322      25.81925201
   3610    2112    4   0.000000      34.60790253      51.09962463      26.19236183
   3612    2112    2   0.000000      33.22638702      51.92560959      25.31097221
   3722    2125    2   0.000000      41.39053726      32.69946671      20.33971786
   3725    2125    4   0.000000      41.12687683      33.07269669      22.12032127
   3738    2126    2   0.000000      55.92860031      51.75673294      33.04100800
   3736    2126    4   0.000000      55.47481155      51.17183304      34.71223068
   3454    2095    6   0.400000      47.92468643      64.51274109      43.46250916
     37      37    1   0.000000      47.45470047      32.50339890      26.49239922
   3613    2113    5  -0.685000      18.33861160      45.91301346      43.77843475
   3614    2113    2   0.000000      20.35230064      46.82196426      42.91675186
   3615    2113    2   0.000000      19.67527199      46.21596909      44.15348053
   3616    2113    6   0.400000      17.86215973      45.65385056      44.57633972
   3617    2113    4   0.000000      22.17467117      46.89163589      43.01460648
   3627    2114    2   0.000000      52.23880386      59.93635559      29.18842316
   3462    2096    2   0.000000      34.65129471      21.69939995      25.92903519
   3465    2096    2   0.000000      33.80130386      20.45132828      25.75993538
   3467    2096    2   0.000000      35.63722610      21.64993286      27.08412170
   3629    2114    2   0.000000      50.21258163      59.05176163      30.39179611
   3460    2096    2   0.000000      32.80693054      20.53207207      24.61529732
   3459    2096    2   0.000000      28.10454178      17.22463226      21.78238297
   3457    2096    2   0.000000      29.02958298      18.40723228      21.97825050
   3458    2096    2   0.000000      30.92664528      19.44118500      23.30451202
   3461    2096    2   0.000000      30.01250458      18.24641991      23.11992264
   3463    2096    2   0.000000      31.91825294      19.31371880      24.44516945
   3387    2088    2   0.000000      14.82237625      33.45695114      19.91242218
   3385    2088    2   0.000000      15.56695557      34.57779694      20.60426903
   3386    2088    2   0.000000      17.42447090      35.23531723      22.19289589
   3388    2088    2   0.000000      19.25861931      35.90524292      23.81159019
   3389    2088    2   0.000000      16.68593788      34.10622787      21.50717735
   3391    2088    2   0.000000      18.52889061      34.77335739      23.11921501
   3573    2108    2   0.000000      21.77548599      52.98020172      29.93764305
   3393    2088    2   0.000000      20.31602669      35.43691254      24.78879547
   3390    2088    2   0.000000      21.05817223      36.55078125      25.49879646
   3395    2088    2   0.000000      22.03859138      36.03108215      26.52887535
   3570    2108    2   0.000000      22.21082687      52.23183823      31.17977333
   3705    2123    2   0.000000      26.08194733      23.51930428      44.12452698
   3575    2108    2   0.000000      23.17466164      51.10048676      30.89080811
      7       7    1   0.000000      32.54439926      39.02339935      22.53120041
     26      26    1   0.000000      32.19530106      34.66749954      26.28240013
     40      40    1   0.000000      30.33769989      38.80210114      24.45960045
     41      41    1   0.000000      30.18379974      36.77470016      26.53149986
     42      42    1   0.000000      28.24589920      38.68239975      26.42469978
     43      43    1   0.000000      32.42900085      36.93939972      24.43400002
     46      46    1   0.000000      32.13980103      38.70529938      26.62470055
   3572    2108    2   0.000000      23.51589584      50.25194931      32.09762955
   3574    2108    4   0.000000      25.22833443      48.39762497      33.25386429
   3576    2108    2   0.000000      24.34163094      49.00659180      31.77462769
   3704    2123    2   0.000000      27.47245789      23.75646973      44.72928238
   3707    2123    4   0.000000      28.72172928      24.30151176      43.50594330
      2       2    1   0.000000      36.68180084      34.87720108      22.70910072
      6       6    1   0.000000      34.84690094      37.06029892      22.52739906
      8       8    1   0.000000      38.71820068      36.70690155      22.57460022
      9       9    1   0.000000      36.96490097      38.99340057      22.53490067
     24      24    1   0.000000      34.40240097      34.80020142      24.46059990
     28      28    1   0.000000      38.71269989      34.66600037      24.55019951
     30      30    1   0.000000      36.51119995      34.52880096      26.36160088
     44      44    1   0.000000      34.55739975      38.85089874      24.61770058
     45      45    1   0.000000      34.36610031      36.68320084      26.63509941
     47      47    1   0.000000      36.58599854      36.86510086      24.73629951
     48      48    1   0.000000      38.84999847      38.67060089      24.66690063
   3812    2135    2   0.000000      43.80047607      38.48668289      20.25812149
      4       4    1   0.000000      40.74440002      34.93560028      22.65699959
      5       5    1   0.000000      45.12149811      34.80789948      22.66270065
     10      10    1   0.000000      42.92990112      36.86460114      22.72050095
     11      11    1   0.000000      40.76660156      38.84960175      22.81590080
     13      13    1   0.000000      45.02030182      38.73389816      22.91060066
     32      32    1   0.000000      43.00230026      34.87049866      24.80240059
     38      38    1   0.000000      45.34429932      34.58929825      26.63999939
     51      51    1   0.000000      40.86259842      36.74060059      24.75300026
     52      52    1   0.000000      42.85409927      38.81359863      24.93210030
     55      55    1   0.000000      45.28329849      36.72000122      24.67799950
   3808    2134    4   0.000000      44.02865601      25.00736618      52.84909058
   3815    2135    4   0.000000      43.52121353      39.27877808      21.88848495
   3741    2127    2   0.000000      50.19361496      35.72221375      20.40976143
   3630    2114    2   0.000000      48.06459808      58.17251205      31.43708420
     12      12    1   0.000000      47.13949966      36.77970123      22.69770050
     14      14    1   0.000000      49.11999893      39.06150055      22.71430016
     36      36    1   0.000000      47.38370132      34.66490173      24.52099991
     39      39    1   0.000000      49.60549927      34.65420151      26.45529938
     56      56    1   0.000000      47.16730118      38.89450073      24.78529930
     59      59    1   0.000000      49.35219955      36.79909897      24.63089943
     60      60    1   0.000000      51.38959885      38.78609848      24.42939949
     61      61    1   0.000000      51.54399872      36.76300049      26.62299919
     62      62    1   0.000000      49.56909943      38.80419922      26.56329918
   3628    2114    4   0.000000      47.29515457      57.37292862      32.89709091
   3740    2127    2   0.000000      50.46002960      35.77246475      21.91787720
   3743    2127    4   0.000000      49.35667038      36.94435883      22.77873421
   3626    2114    2   0.000000      49.58439255      58.31490707      31.56165504
   3635    2115    4   0.000000      45.45685959      32.55630112      22.68445587
   3624    2114    2   0.000000      51.72138596      59.20748138      30.41486168
     63      63    1   0.000000      53.59389877      38.69549942      26.56800079
   3631    2115    5  -0.685000      47.98152542      31.21972847      20.10207939
   3632    2115    2   0.000000      45.95170593      31.43462753      21.32735062
   3633    2115    2   0.000000      46.88311386      32.09727097      20.30594444
   3634    2115    6   0.400000      48.44792175      31.52480888      19.31470299
   3469    2097    5  -0.685000      38.90222549      63.96405029      38.05447769
   3472    2097    6   0.400000      38.00163651      64.30929565      38.03190994
    891     891    1   0.000000      26.13590050      41.11819839      26.63669968
   3379    2087    5  -0.685000      32.91594696      20.77616882      33.49776840
   3382    2087    6   0.400000      33.61449432      20.35424614      32.98266220
   3559    2107    5  -0.685000      24.85741997      44.65311050      25.00030708
   3561    2107    2   0.000000      26.20805931      44.85870361      24.61130905
   3562    2107    6   0.400000      24.53506088      45.48630524      25.36558914
    874     874    1   0.000000      32.69449997      42.79639816      22.71710014
    892     892    1   0.000000      28.39019966      40.73630142      24.48880005
    893     893    1   0.000000      30.28310013      43.01829910      24.71619987