3815
Atoms. Timestep: 0
1 38.9042 32.8676 22.5671
1 36.6818 34.8772 22.7091
1 43.0352 32.9485 23.0153
1 40.7444 34.9356 22.657
1 45.1215 34.8079 22.6627
1 34.8469 37.0603 22.5274
1 32.5444 39.0234 22.5312
1 38.7182 36.7069 22.5746
1 36.9649 38.9934 22.5349
1 42.9299 36.8646 22.7205
1 40.7666 38.8496 22.8159
1 47.1395 36.7797 22.6977
1 45.0203 38.7339 22.9106
1 49.12 39.0615 22.7143
1 40.3572 26.3001 26.3294
1 38.7205 30.8317 24.4259
1 38.4358 28.759 26.3822
1 36.4063 30.7607 26.4573
1 40.6722 28.6281 24.5622
1 42.9736 30.5245 24.7315
1 42.9481 28.0952 26.2061
1 40.7373 30.6971 26.515
1 45.401 30.4734 26.2011
1 34.4024 34.8002 24.4606
1 34.264 32.615 26.4372
1 32.1953 34.6675 26.2824
1 36.3334 32.5329 24.3765
1 38.7127 34.666 24.5502
1 38.5922 32.6259 26.5457
1 36.5112 34.5288 26.3616
1 40.9232 32.8224 24.6923
1 43.0023 34.8705 24.8024
1 43.1317 32.6207 26.5503
1 40.7078 34.5889 26.6734
1 45.267 32.7847 24.5561
1 47.3837 34.6649 24.521
1 47.4547 32.5034 26.4924
1 45.3443 34.5893 26.64
1 49.6055 34.6542 26.4553
1 30.3377 38.8021 24.4596
1 30.1838 36.7747 26.5315
1 28.2459 38.6824 26.4247
1 32.429 36.9394 24.434
1 34.5574 38.8509 24.6177
1 34.3661 36.6832 26.6351
1 32.1398 38.7053 26.6247
1 36.586 36.8651 24.7363
1 38.85 38.6706 24.6669
1 38.565 36.6988 26.8163
1 36.5796 38.5955 26.7093
1 40.8626 36.7406 24.753
1 42.8541 38.8136 24.9321
1 42.9535 36.7937 26.8668
1 40.8536 38.7985 26.8746
1 45.2833 36.72 24.678
1 47.1673 38.8945 24.7853
1 47.4092 36.6397 26.6566
1 45.1437 38.6391 26.7412
1 49.3522 36.7991 24.6309
1 51.3896 38.7861 24.4294
1 51.544 36.763 26.623
1 49.5691 38.8042 26.5633
1 53.5939 38.6955 26.568
1 38.5228 26.3743 28.3426
1 38.7914 24.405 30.6528
1 36.5944 26.1887 30.3121
1 40.597 24.2488 28.5346
1 42.5865 26.2381 28.226
1 42.8008 24.6758 30.5232
1 40.6809 26.4696 30.2179
1 45.1472 26.4533 30.2434
1 34.2958 30.4788 28.2899
1 34.4117 28.2384 30.2425
1 32.122 30.1849 30.1369
1 36.419 28.4312 28.3988
1 38.6364 30.6243 28.5824
1 38.6701 28.4407 30.1331
1 36.3701 30.5089 30.2949
1 40.7302 28.474 28.0251
1 43.1821 30.2997 27.9449
1 42.9494 28.319 30.0162
1 40.9078 30.259 30.2042
1 45.0835 28.1796 27.8981
1 47.6068 30.283 28.1294
1 47.4031 28.2343 30.062
1 45.2739 30.0679 29.9549
1 49.6873 30.1347 30.1413
1 30.0237 34.531 28.3633
1 29.9072 32.3824 30.2579
1 27.9814 34.381 30.4923
1 32.1653 32.4628 28.4401
1 34.2719 34.6274 28.5747
1 34.2604 32.3401 30.2849
1 32.1288 34.3663 30.3827
1 36.393 32.6191 28.5244
1 38.5947 34.6008 28.7878
1 38.7094 32.5004 30.4987
1 36.5195 34.5584 30.7979
1 40.9834 32.5691 28.5806
1 43.0992 34.5163 28.6496
1 43.2713 32.2954 30.3525
1 41.0428 34.4921 30.6328
1 45.4245 32.3848 28.4373
1 47.576 34.3916 28.4834
1 47.5349 32.2331 30.2054
1 45.3434 34.3727 30.5713
1 49.6573 32.4792 28.2868
1 51.7987 34.5986 28.4614
1 51.8785 32.279 30.2959
1 49.7092 34.3222 30.3768
1 53.7465 34.4152 30.5319
1 26.0882 38.9682 28.367
1 26.1464 36.7026 30.5793
1 24.4396 38.8649 30.6728
1 28.0172 36.7252 28.4869
1 30.2512 38.7549 28.5598
1 30.1593 36.5831 30.4087
1 28.1803 38.7222 30.5201
1 32.1871 36.6573 28.4867
1 34.4196 38.6942 28.615
1 34.3225 36.6136 30.5249
1 32.3804 38.7181 30.526
1 36.4551 36.52 28.6013
1 38.6905 38.7554 28.6629
1 38.7065 36.6331 30.6291
1 36.5326 38.7051 30.5676
1 40.7876 36.6675 28.754
1 43.0796 38.6071 28.9444
1 43.1585 36.5252 30.6603
1 40.7284 38.7566 30.7146
1 45.2216 36.5303 28.6525
1 47.3775 38.676 28.5865
1 47.3676 36.4122 30.4717
1 45.2322 38.7784 30.6528
1 49.5647 36.6204 28.6784
1 51.6007 38.6716 28.6279
1 51.5624 36.5431 30.7095
1 49.3972 38.7431 30.5888
1 53.5861 36.756 28.7291
1 55.5968 38.8884 28.6654
1 55.6803 36.7352 30.7161
1 53.5108 38.7704 30.7879
1 57.5642 38.9358 30.759
1 38.8923 22.691 32.9972
1 36.8442 22.7399 35.114
1 43.054 22.9152 32.8126
1 41.0074 22.7695 34.7564
1 45.2637 22.8837 34.8428
1 34.5394 26.3087 32.3793
1 34.7839 24.6437 34.7693
1 32.535 26.4878 34.579
1 36.7091 24.4845 32.646
1 38.6344 26.5738 32.2595
1 38.8891 24.7326 34.7909
1 36.6894 26.6082 34.4365
1 40.9331 24.7835 32.6742
1 43.0459 26.7536 32.3381
1 43.1607 24.818 34.7006
1 40.9071 26.8575 34.4992
1 45.2023 24.7354 32.6045
1 47.4229 26.5404 32.282
1 47.4102 24.7582 34.5813
1 45.2546 26.7405 34.4954
1 49.5402 26.4878 34.5829
1 30.1249 29.9987 32.1865
1 30.3818 28.1709 34.4634
1 28.3705 30.1439 34.5114
1 32.3421 28.2643 32.2905
1 34.1282 30.3725 32.1904
1 34.5403 28.3743 34.3536
1 32.2098 30.2448 34.3049
1 36.5023 28.358 32.136
1 38.5614 30.3909 32.385
1 38.6706 28.5071 34.5381
1 36.4287 30.5042 34.5066
1 40.7998 28.4989 32.2483
1 43.1526 30.2708 32.183
1 43.0721 28.6808 34.4541
1 40.8294 30.5284 34.3368
1 45.3178 28.3952 32.2698
1 47.5916 30.1745 32.1713
1 47.4471 28.474 34.4692
1 45.343 30.3855 34.4045
1 49.6344 28.3339 32.306
1 51.8319 30.1484 32.3931
1 51.6195 28.3441 34.6361
1 49.6489 30.3019 34.362
1 53.6613 30.3891 34.7117
1 26.2266 34.4096 32.6538
1 26.4488 32.2291 34.6142
1 24.3392 34.5102 34.8663
1 28.2289 32.1734 32.5065
1 30.1259 34.4085 32.4586
1 30.2051 32.2833 34.4264
1 28.3586 34.4264 34.5521
1 31.9031 32.1224 32.1688
1 34.2609 34.4381 32.3656
1 34.2606 32.3642 34.2839
1 32.2445 34.3813 34.3698
1 36.442 32.2171 32.3589
1 38.9296 34.491 32.5511
1 38.6868 32.4617 34.334
1 36.5959 34.3849 34.141
1 41.0062 32.3251 32.3308
1 43.2225 34.4031 32.5854
1 43.2074 32.2569 34.3746
1 41.0571 34.401 34.4389
1 45.4638 32.1057 32.24
1 47.5647 34.2587 32.2907
1 47.5271 32.2391 34.2449
1 45.4752 34.3424 34.3813
1 49.7484 32.1372 32.1196
1 51.6026 34.3436 32.4855
1 51.5967 32.2777 34.4996
1 49.4599 34.4453 34.4058
1 53.7302 32.2784 32.607
1 55.6529 34.5233 32.7016
1 55.6981 32.4409 34.7792
1 53.6207 34.3705 34.6016
1 57.7086 34.5348 34.9611
1 22.7247 38.902 32.9476
1 22.6078 36.712 35.0002
1 24.3937 36.6556 32.8008
1 26.4776 38.7236 32.6563
1 26.4969 36.5789 34.6851
1 24.6773 38.7283 34.8594
1 28.1704 36.4893 32.5167
1 30.324 38.6598 32.4412
1 30.2793 36.6043 34.5204
1 28.4068 38.68 34.6988
1 32.1816 36.5626 32.4234
1 34.4309 38.778 32.5135
1 34.3856 36.4611 34.4722
1 32.3696 38.6089 34.4371
1 36.5491 36.7508 32.5367
1 38.7201 38.6656 32.6248
1 38.633 36.6989 34.4969
1 36.5862 38.7155 34.6149
1 41.0329 36.588 32.5799
1 43.0905 38.7351 32.5577
1 43.1523 36.5864 34.5225
1 40.9626 38.7194 34.5978
1 45.3884 36.4879 32.5597
1 47.3156 38.7909 32.5308
1 47.3356 36.5736 34.5505
1 45.2329 38.7233 34.5248
1 49.345 36.4873 32.4659
1 51.3721 38.6699 32.6229
1 51.366 36.4495 34.5214
1 49.3115 38.6815 34.5487
1 53.6472 36.4871 32.7056
1 55.5246 38.6902 32.8518
1 55.6022 36.5285 34.7588
1 53.3685 38.6915 34.6712
1 57.64 36.6424 32.8072
1 59.2709 38.8949 32.9891
1 59.4232 36.7826 34.9452
1 57.3524 38.7619 34.9931
1 34.8816 22.6273 37.1429
1 32.9844 22.4634 39.1674
1 39.0321 22.7259 36.8872
1 37.0701 22.6391 38.8188
1 43.1151 22.7669 36.7857
1 41.2099 22.7309 38.8846
1 47.1628 22.8 36.7804
1 45.0365 22.705 38.7567
1 49.0529 22.7008 38.9723
1 30.6279 26.295 36.748
1 30.8381 24.3525 38.8797
1 28.6461 26.183 38.8274
1 32.8499 24.5319 36.821
1 34.6329 26.6297 36.6819
1 34.8993 24.7735 38.8997
1 32.6604 26.5177 38.8164
1 36.9153 24.7973 36.9358
1 38.8878 26.8013 36.6263
1 39.1023 24.6787 38.8168
1 36.8883 26.8215 38.8573
1 41.0558 24.72 36.7678
1 43.0178 26.859 36.5766
1 43.1276 24.8196 38.7892
1 40.9879 26.8719 38.6654
1 45.2677 24.8091 36.8239
1 47.3353 26.6411 36.7274
1 47.1362 24.6621 39.0053
1 45.1071 26.7711 38.7564
1 49.2988 24.5986 36.9187
1 51.4033 26.4318 36.9498
1 51.2008 24.5113 39.1478
1 49.3 26.5641 38.9704
1 53.4185 26.282 39.1621
1 26.5578 30.1874 36.8183
1 26.5664 28.1238 38.9195
1 24.6324 30.3968 38.8994
1 28.5564 28.2836 36.803
1 30.4212 30.2515 36.5654
1 30.5129 28.3663 38.8905
1 28.4927 30.2284 38.8825
1 32.4257 28.4491 36.6233
1 34.4429 30.4979 36.5231
1 34.5345 28.6264 38.8193
1 32.479 30.409 38.8246
1 36.6204 28.6076 36.6098
1 38.6553 30.7224 36.4205
1 38.8397 28.8178 38.6932
1 36.6337 30.6728 38.5555
1 40.8847 28.7939 36.5141
1 43.0147 30.6153 36.5914
1 42.9935 28.8552 38.7107
1 40.7773 30.8142 38.6258
1 45.2043 28.6608 36.6041
1 47.4387 30.52 36.5376
1 47.2918 28.7116 38.676
1 45.1621 30.7154 38.6458
1 49.4786 28.5469 36.6212
1 51.6042 30.4418 36.6709
1 51.418 28.4851 38.9645
1 49.4579 30.6299 38.7782
1 53.4649 28.3506 36.9596
1 55.5028 30.5011 37.0224
1 55.4418 28.4011 39.077
1 53.4759 30.42 38.9901
1 57.2973 30.6892 39.2351
1 22.5969 34.7013 37.0931
1 22.8034 32.7204 39.0611
1 24.5699 32.4207 36.9379
1 26.5588 34.3647 36.6769
1 26.5727 32.2946 38.7999
1 24.8 34.607 38.9905
1 28.515 32.2744 36.6421
1 30.3827 34.4888 36.5763
1 30.4701 32.3836 38.8098
1 28.5586 34.4352 38.7936
1 32.2895 32.4336 36.5914
1 34.4272 34.4474 36.3929
1 34.4018 32.5759 38.6604
1 32.3896 34.4969 38.6932
1 36.4975 32.6526 36.406
1 38.8332 34.6076 36.4524
1 38.7344 32.7442 38.5819
1 36.5251 34.6314 38.6507
1 40.9483 32.5373 36.4875
1 43.2141 34.482 36.417
1 42.9966 32.6981 38.5262
1 40.9795 34.6965 38.5733
1 45.2804 32.48 36.42
1 47.4544 34.3933 36.4591
1 47.3682 32.5363 38.6866
1 45.2805 34.4803 38.5217
1 49.5518 32.3946 36.5052
1 51.4525 34.4546 36.578
1 51.5658 32.512 38.7735
1 49.4224 34.4841 38.6899
1 53.5208 32.4871 36.7066
1 55.459 34.529 36.8198
1 55.3607 32.5802 38.9921
1 53.4435 34.5955 38.7963
1 57.5165 32.6761 37.1081
1 59.4259 34.7163 37.312
1 59.2614 32.7932 39.3917
1 57.2895 34.7824 39.1529
1 22.6411 38.7337 37.0115
1 22.8258 36.7433 39.0437
1 24.6891 36.6348 36.8913
1 26.665 38.8212 36.8102
1 26.7823 36.6496 38.8233
1 24.7679 38.8089 38.8914
1 28.522 36.6374 36.667
1 30.4619 38.6719 36.6877
1 30.5241 36.6219 38.7218
1 28.7009 38.8008 38.8615
1 32.4132 36.5117 36.543
1 34.4841 38.6709 36.5265
1 34.4973 36.6276 38.6134
1 32.5553 38.7093 38.6026
1 36.6145 36.5368 36.4084
1 38.8182 38.6168 36.6248
1 38.7175 36.5553 38.5759
1 36.6599 38.593 38.5653
1 40.932 36.634 36.5213
1 43.0941 38.6858 36.6399
1 43.1935 36.579 38.6587
1 40.944 38.6476 38.7609
1 45.2161 36.5329 36.5711
1 47.3168 38.7251 36.6309
1 47.1863 36.5498 38.4885
1 45.1367 38.7005 38.7041
1 49.2783 36.5747 36.5352
1 51.1726 38.6933 36.614
1 51.3122 36.6229 38.6915
1 49.0847 38.7396 38.6143
1 53.3736 36.6062 36.586
1 55.2539 38.7276 36.7557
1 55.3035 36.7581 38.8483
1 53.1603 38.7518 38.76
1 57.4987 36.6639 36.9966
1 59.3507 38.7899 37.0062
1 59.312 36.9643 39.1355
1 57.2159 38.8818 38.8597
1 35.1173 22.6949 40.9098
1 33.112 22.5927 42.8503
1 39.1315 22.7619 40.8967
1 37.1375 22.786 42.92
1 43.1905 22.7075 40.9492
1 41.1425 22.7703 42.9858
1 47.0086 22.6835 40.966
1 45.1792 22.6945 43.1059
1 48.8066 22.6004 43.1432
1 26.5688 26.0682 40.8222
1 28.7131 24.0802 40.9594
1 30.6172 26.2933 40.9487
1 30.7324 24.2804 43.0776
1 28.652 26.1314 42.9355
1 32.8548 24.6281 40.9458
1 34.82 26.6876 40.9303
1 35.0037 24.6999 42.9368
1 32.6548 26.4298 43.0319
1 37.0653 24.7088 40.7862
1 39.0158 26.7595 40.8139
1 39.0609 24.7593 42.8846
1 36.9419 26.7374 42.8942
1 41.1452 24.7277 40.8364
1 43.0592 26.7949 40.8448
1 43.119 24.7023 42.9586
1 41.0574 26.7226 42.9548
1 45.0571 24.7138 40.9298
1 47.155 26.7694 40.886
1 47.0614 24.7731 42.9925
1 45.0856 26.8098 42.9271
1 49.1116 24.6286 41.0861
1 51.3601 26.4618 41.1815
1 51.1467 24.4178 43.1678
1 49.3112 26.595 43.1465
1 53.1582 24.305 41.1595
1 55.3956 26.3673 41.1384
1 53.331 26.3512 43.1778
1 24.54 28.2679 40.8272
1 26.5847 30.2676 40.8899
1 26.5282 28.1611 42.8941
1 24.6568 30.4219 42.972
1 28.5271 28.2017 40.927
1 30.5442 30.394 40.9894
1 30.6051 28.3307 43.0363
1 28.6053 30.4017 43.0916
1 32.5989 28.4968 40.9511
1 34.5537 30.6254 40.8721
1 34.704 28.613 42.9532
1 32.5937 30.5334 43.032
1 36.7825 28.8086 40.849
1 38.7557 30.8552 40.7763
1 38.9104 28.8304 42.9055
1 36.6972 30.7267 43.0021
1 40.933 28.8922 40.8367
1 42.9668 30.8706 40.7381
1 43.0504 28.8977 42.9076
1 40.9286 30.9447 42.8469
1 45.1458 28.8498 40.7873
1 47.3069 30.7122 40.8477
1 47.2401 28.6623 43.1072
1 45.1695 30.8145 42.9366
1 49.3047 28.6748 40.9896
1 51.3896 30.6148 41.0144
1 51.3784 28.4955 43.1456
1 49.3429 30.6289 43.1252
1 53.4746 28.3292 41.1272
1 55.2986 30.5157 41.229
1 55.3856 28.4071 43.2051
1 53.3351 30.5083 43.1991
1 57.327 28.6047 41.1877
1 57.2423 30.6048 43.2768
1 22.8921 34.7728 40.9854
1 22.8079 32.6975 43.0433
1 24.7532 32.5769 40.944
1 26.7334 34.5295 40.968
1 26.5956 32.4462 43.1427
1 24.7351 34.5943 43.0786
1 28.5352 32.3758 41.0093
1 30.5054 34.4995 41.0232
1 30.5286 32.44 43.1607
1 28.5426 34.4881 43.2018
1 32.4414 32.5106 40.9513
1 34.4382 34.5541 40.8835
1 34.5182 32.637 43.0192
1 32.3916 34.4781 43.2451
1 36.5602 32.6442 40.8082
1 38.686 34.6884 40.7156
1 38.7512 32.7703 42.967
1 36.6174 34.6556 42.9516
1 40.842 32.8038 40.6956
1 43.0796 34.5954 40.7049
1 43.0362 32.7748 42.8553
1 40.8831 34.6368 42.8584
1 45.1573 32.6676 40.762
1 47.256 34.618 40.7553
1 47.3066 32.6955 42.943
1 45.18 34.6314 42.9074
1 49.4207 32.6203 40.9474
1 51.4323 34.6013 40.9623
1 51.3841 32.6161 43.1617
1 49.3383 34.6519 43.02
1 53.4243 32.5881 41.0916
1 55.2681 34.7731 41.0541
1 55.3003 32.5977 43.3311
1 53.3187 34.703 43.2056
1 57.1737 32.7211 41.2301
1 59.2183 34.9655 41.2185
1 59.1594 32.903 43.2449
1 57.1638 34.7808 43.2473
1 22.8774 38.8685 40.9664
1 22.8739 36.8668 42.9311
1 24.8553 36.7354 41.0162
1 26.8372 38.8132 40.9156
1 26.6945 36.6173 43.0973
1 24.8323 38.7966 43.0092
1 28.7191 36.6238 40.9473
1 30.7074 38.7335 40.9174
1 30.5561 36.5608 43.1898
1 28.6995 38.719 43.0545
1 32.5064 36.5828 40.9253
1 34.6241 38.7031 40.7885
1 34.4156 36.5549 43.1407
1 32.5749 38.7145 43.101
1 36.5819 36.6413 40.7894
1 38.7316 38.6442 40.7574
1 38.7594 36.6523 42.9152
1 36.6523 38.7289 42.9168
1 40.9312 36.6271 40.7603
1 43.0451 38.6934 40.7708
1 43.0536 36.585 42.8458
1 40.9216 38.6404 42.87
1 45.1497 36.5895 40.7411
1 47.1449 38.6426 40.7517
1 47.1784 36.5918 42.9911
1 45.0815 38.6636 42.8715
1 49.2226 36.607 40.7136
1 51.0978 38.6861 40.7404
1 51.2816 36.6973 43.0474
1 49.1373 38.6011 43.0102
1 53.3489 36.7104 41.0433
1 55.2671 38.8457 40.9844
1 55.254 36.8275 43.1321
1 53.2304 38.7918 43.0347
1 57.2913 36.876 41.0672
1 59.233 38.9532 41.1203
1 59.1623 36.9403 43.2763
1 57.2082 38.7945 43.1835
1 35.1044 22.7469 44.888
1 39.0975 22.7164 45.0371
1 37.0283 22.6936 47.0047
1 43.1747 22.7081 45.082
1 41.0909 22.655 47.0581
1 47.0407 22.672 45.2675
1 45.1036 22.7233 47.2167
1 30.5869 26.2297 45.1974
1 32.8409 24.4047 45.0617
1 34.7588 26.5401 45.026
1 34.8737 24.5422 47.0999
1 32.6021 26.3354 47.1725
1 37.0585 24.7299 45.0672
1 39.0016 26.708 45.0495
1 39.0407 24.671 47.1248
1 36.8393 26.5623 47.194
1 41.0598 24.7043 44.9814
1 43.0633 26.7811 44.993
1 43.0411 24.7325 47.129
1 41.0167 26.7371 47.0739
1 45.0857 24.7698 45.0958
1 47.2429 26.6326 45.1661
1 47.1681 24.6828 47.2609
1 45.1416 26.6782 47.2331
1 49.1388 24.5426 45.1422
1 51.3378 26.4807 45.2207
1 49.261 26.5875 47.2918
1 26.4655 30.2141 45.1919
1 28.5007 28.1912 45.1014
1 30.567 30.3383 45.1866
1 30.4148 28.1778 47.2759
1 28.3739 30.1221 47.377
1 32.6079 28.4062 45.1083
1 34.6401 30.5026 45.1168
1 34.6038 28.4059 47.1854
1 32.4523 30.2277 47.3144
1 36.765 28.6025 45.0366
1 38.8165 30.7517 45.0375
1 38.8464 28.6466 47.1146
1 36.6535 30.5005 47.1361
1 40.9739 28.8257 44.9832
1 43.0797 30.8307 45.0182
1 43.0797 28.7116 47.1577
1 40.9467 30.7108 47.133
1 45.1582 28.7179 45.123
1 47.2629 30.6503 45.1725
1 47.2598 28.5828 47.2992
1 45.1608 30.6961 47.1966
1 49.3644 28.5197 45.28
1 51.3885 30.4594 45.3329
1 51.372 28.4403 47.3781
1 49.3565 30.4771 47.3894
1 53.3754 28.4505 45.2145
1 55.3679 30.4619 45.3465
1 53.3473 30.4555 47.4076
1 22.6294 34.7319 44.9183
1 24.4885 32.322 45.1571
1 26.466 34.3864 45.3069
1 26.41 32.2821 47.3406
1 24.428 34.5222 47.179
1 28.5169 32.3062 45.2903
1 30.4764 34.445 45.3894
1 30.4037 32.1849 47.4594
1 28.4124 34.3677 47.406
1 32.5106 32.4443 45.2502
1 34.5082 34.538 45.2232
1 34.5009 32.3595 47.2815
1 32.4516 34.3477 47.3686
1 36.6415 32.6667 45.1098
1 38.823 34.7343 45.044
1 38.8076 32.6598 47.1135
1 36.6549 34.583 47.1811
1 40.9529 32.7581 45.0215
1 43.0636 34.6593 45.0027
1 43.0164 32.7375 47.1577
1 40.9067 34.7408 47.1026
1 45.2101 32.7458 45.0564
1 47.3248 34.6452 45.1138
1 47.2787 32.5881 47.2882
1 45.1867 34.6434 47.2047
1 49.3317 32.5883 45.1912
1 51.3059 34.6387 45.2375
1 51.3146 32.4621 47.4388
1 49.3295 34.5401 47.3257
1 53.3511 32.5013 45.4228
1 55.3005 34.5717 45.4185
1 55.4195 32.4083 47.5654
1 53.3179 34.4967 47.4572
1 57.335 32.6387 45.3616
1 59.2118 34.8381 45.3447
1 57.3574 34.563 47.5034
1 22.7015 38.8313 45.0738
1 22.625 36.6389 47.0369
1 24.6198 36.6661 45.0712
1 26.6482 38.7474 45.089
1 26.4461 36.5906 47.2492
1 24.6073 38.8085 47.0689
1 28.517 36.5397 45.308
1 30.4936 38.7169 45.2008
1 30.5041 36.5568 47.3184
1 28.5048 38.8115 47.1924
1 32.4423 36.5674 45.3341
1 34.5191 38.6808 45.1955
1 34.6163 36.6646 47.1659
1 32.5157 38.785 47.221
1 36.6001 36.6004 45.0959
1 38.7712 38.6783 44.9519
1 38.7844 36.705 47.1035
1 36.7379 38.8061 46.9938
1 40.9547 36.6184 44.9665
1 43.0147 38.6701 44.9955
1 43.0426 36.6805 47.0656
1 40.9288 38.7287 47.0041
1 45.1666 36.5588 45.0895
1 47.1549 38.6843 45.1541
1 47.3015 36.636 47.2308
1 45.0766 38.7432 47.0807
1 49.2972 36.6728 45.166
1 51.2343 38.7435 45.1323
1 51.3003 36.6509 47.3318
1 49.3148 38.7612 47.2166
1 53.2634 36.7323 45.2443
1 55.2409 38.7725 45.2492
1 55.2452 36.6209 47.4504
1 53.2478 38.7166 47.3116
1 57.1695 36.7324 45.3119
1 59.1163 38.9365 45.4198
1 59.0884 36.8356 47.372
1 57.1049 38.8144 47.4256
1 39.0364 22.5406 48.9946
1 43.0802 22.5939 49.0628
1 34.7303 26.4572 49.1826
1 36.9286 24.5459 49.1506
1 38.8832 26.5889 49.2586
1 38.9394 24.3574 51.2228
1 36.8266 26.4107 51.2922
1 40.9886 24.6243 49.1645
1 43.0126 26.653 49.2503
1 42.9755 24.5114 51.2595
1 40.8868 26.5108 51.3154
1 45.0582 24.6514 49.2609
1 47.1829 26.5854 49.4198
1 44.9844 26.5548 51.3891
1 30.3376 30.1152 49.4554
1 32.5213 28.2752 49.2972
1 34.4528 30.3003 49.3224
1 34.6059 28.2861 51.371
1 32.3276 30.1153 51.4865
1 36.709 28.5058 49.2802
1 38.8204 30.5959 49.1922
1 38.8194 28.5652 51.2671
1 36.6177 30.4777 51.2581
1 40.9526 28.6516 49.2009
1 43.0138 30.6594 49.2325
1 42.9237 28.5855 51.307
1 40.9006 30.6403 51.252
1 45.1135 28.6192 49.3113
1 47.2293 30.5036 49.4081
1 47.086 28.4974 51.5143
1 45.0495 30.5754 51.3513
1 49.2292 28.5251 49.4524
1 51.4003 30.3334 49.5462
1 49.2311 30.3874 51.6196
1 26.2921 34.4473 49.3436
1 28.3545 32.2764 49.3915
1 30.3938 34.3708 49.3902
1 30.1675 32.2068 51.4816
1 28.3215 34.4059 51.3202
1 32.2458 32.1327 49.5791
1 34.5722 34.5132 49.2261
1 34.428 32.4034 51.2372
1 32.4478 34.4662 51.2195
1 36.6296 32.4735 49.1906
1 38.7613 34.6494 49.1602
1 38.7699 32.5926 51.2419
1 36.6251 34.5596 51.179
1 40.8983 32.6786 49.2131
1 42.9936 34.7099 49.1893
1 42.9536 32.6298 51.2741
1 40.8581 34.6471 51.2312
1 45.1104 32.6005 49.2944
1 47.2953 34.5108 49.3825
1 47.2324 32.4779 51.4334
1 45.0972 34.5931 51.2654
1 49.4058 32.3401 49.5467
1 51.31 34.451 49.4836
1 51.3648 32.3488 51.6534
1 49.3073 34.4491 51.4604
1 53.3313 32.3938 49.5335
1 55.3632 34.4511 49.5932
1 53.2921 34.4869 51.5397
1 22.5449 38.8184 48.9315
1 24.3894 36.6567 49.1653
1 26.5069 38.7857 49.1514
1 26.412 36.6736 51.172
1 24.4041 38.7502 51.0136
1 28.4391 36.5898 49.2353
1 30.5119 38.8098 49.183
1 30.4457 36.5749 51.1551
1 28.464 38.7676 51.1676
1 32.5877 36.6409 49.1849
1 34.7301 38.8645 49.0465
1 34.596 36.6842 51.1615
1 32.6256 38.8195 51.1038
1 36.6965 36.7455 49.1018
1 38.8133 38.875 48.9799
1 38.7031 36.7048 51.142
1 36.7094 38.8569 51.0712
1 40.8606 36.7327 49.1525
1 43.0047 38.795 49.0723
1 42.9982 36.6961 51.1671
1 40.853 38.8527 51.0167
1 45.1382 36.7053 49.1673
1 47.1799 38.8129 49.1414
1 47.1438 36.6451 51.3006
1 45.0596 38.8009 51.1369
1 49.2954 36.6107 49.4068
1 51.3143 38.7267 49.3978
1 51.2858 36.5707 51.4774
1 49.1913 38.7903 51.3391
1 53.2589 36.5527 49.4776
1 55.1714 38.7549 49.493
1 55.264 36.61 51.518
1 53.245 38.764 51.4957
1 57.2519 36.6534 49.4943
1 59.155 38.7636 49.3776
1 57.2123 38.7474 51.4934
1 38.8583 26.4167 53.3228
1 40.8809 24.415 53.1964
1 42.876 26.4537 53.3868
1 40.8655 26.4658 55.3579
1 34.5255 30.4445 53.2468
1 36.7992 28.506 53.2606
1 38.7721 30.5987 53.2712
1 38.7793 28.518 55.313
1 36.6312 30.5728 55.238
1 40.856 28.5264 53.3439
1 42.8844 30.6118 53.3319
1 42.8775 28.5484 55.4427
1 40.8047 30.6113 55.3139
1 44.8427 28.5645 53.3924
1 46.9841 30.5559 53.4844
1 44.8651 30.6255 55.3828
1 30.423 34.5825 53.2287
1 32.3621 32.4304 53.2823
1 34.4633 34.5354 53.2305
1 34.4708 32.5284 55.3161
1 32.4395 34.5757 55.2981
1 36.5526 32.5339 53.2395
1 38.7021 34.6293 53.2277
1 38.6823 32.6603 55.2219
1 36.5401 34.6098 55.2452
1 40.8494 32.6364 53.3002
1 42.9572 34.6748 53.2325
1 42.9027 32.6903 55.2718
1 40.8408 34.7719 55.1366
1 45.0153 32.6397 53.3187
1 47.1631 34.5754 53.3757
1 47.006 32.6202 55.4729
1 44.9751 34.681 55.3006
1 49.1544 32.5056 53.5681
1 51.2392 34.5432 53.4959
1 49.1439 34.6174 55.4768
1 26.4235 38.8067 53.1125
1 28.4682 36.7105 53.1566
1 30.4978 38.7684 53.1299
1 30.4899 36.7621 55.1903
1 28.4258 38.8252 55.1859
1 32.4805 36.648 53.1442
1 34.6857 38.8057 53.103
1 34.5109 36.6428 55.1838
1 32.5811 38.8035 55.0448
1 36.6416 36.6395 53.1735
1 38.7596 38.8167 53.0683
1 38.7246 36.7729 55.1114
1 36.714 38.8162 55.1048
1 40.8255 36.7401 53.0954
1 42.9052 38.8328 53.039
1 42.8707 36.8019 55.1081
1 40.8062 38.8717 55.0352
1 45.0301 36.6711 53.224
1 47.037 38.7888 53.2101
1 47.0637 36.6751 55.2717
1 44.9072 38.8082 55.1297
1 49.2135 36.6109 53.3447
1 51.223 38.7275 53.3894
1 51.1382 36.7031 55.4326
1 49.0503 38.7408 55.2249
1 53.2595 36.6746 53.4671
1 55.2669 38.7496 53.5079
1 53.1715 38.7442 55.4542
1 38.6913 30.6885 57.2222
1 40.7711 28.6276 57.2822
1 42.7821 30.7132 57.3515
1 34.5397 34.691 57.2816
1 36.6278 32.6918 57.2666
1 38.7277 34.8028 57.1263
1 38.7356 32.8398 59.1541
1 36.6834 34.7543 59.1744
1 40.7774 32.7722 57.158
1 42.8199 34.8046 57.1699
1 42.6594 32.8571 59.2417
1 40.7331 34.8996 59.162
1 44.8739 32.6877 57.3536
1 46.9573 34.7004 57.3897
1 44.7857 34.7962 59.2149
1 30.6408 38.9204 57.0324
1 32.5777 36.7948 57.1848
1 34.6674 38.8227 57.0665
1 34.6978 36.7776 59.1997
1 32.7243 38.8268 59.0917
1 36.6613 36.7819 57.171
1 38.7429 38.8725 57.1123
1 38.6824 36.8553 59.1552
1 36.701 38.8644 59.1546
1 40.7818 36.8754 57.103
1 42.8189 38.8719 57.1201
1 42.8337 36.8524 59.1681
1 40.7563 38.8295 59.1922
1 44.8865 36.8071 57.1909
1 46.897 38.8128 57.1853
1 46.8069 36.8021 59.2553
1 44.8308 38.871 59.185
1 48.9732 36.7403 57.38
1 50.949 38.8441 57.3197
1 48.7907 38.8456 59.2372
1 34.7047 41.0144 22.7652
1 32.6945 42.7964 22.7171
1 38.9625 40.8891 22.8329
1 36.9155 42.7867 22.6922
1 43.0286 40.7654 22.9572
1 41.0119 42.8426 22.5923
1 46.9264 40.9666 22.7784
1 44.9058 42.815 22.7923
1 49.2266 42.8707 22.8624
1 34.8447 44.7322 22.363
1 38.6759 44.9428 22.61
1 36.6096 47.1087 22.5755
1 43.2219 44.8687 22.7419
1 40.9225 47.0407 22.5959
1 47.1586 44.6151 22.677
1 44.968 46.9779 22.6058
1 38.6017 48.848 22.5304
1 42.8058 49.026 22.46
1 26.1359 41.1182 26.6367
1 28.3902 40.7363 24.4888
1 30.2831 43.0183 24.7162
1 30.2045 40.9089 26.5331
1 28.1401 42.9459 26.586
1 32.3447 40.9253 24.5986
1 34.6899 43.1629 24.7005
1 34.4442 40.916 26.597
1 32.5191 43.1662 26.4514
1 36.6416 40.8852 24.7581
1 38.768 42.8818 24.7526
1 38.7332 40.8073 26.7179
1 36.5693 42.9541 26.6262
1 40.9966 40.7811 24.6692
1 43.1425 42.9627 24.8742
1 43.025 40.7151 26.9881
1 40.8185 42.9505 26.6027
1 45.1911 40.8484 24.9148
1 47.2179 42.8527 24.899
1 47.3308 40.9161 26.9447
1 45.169 43.1703 26.9164
1 49.3044 40.8188 24.8181
1 51.4566 42.9376 24.5992
1 51.6042 40.8702 26.5169
1 49.3207 43.0312 26.5828
1 53.333 40.7288 24.366
1 55.3958 40.8123 26.4745
1 53.5363 42.8096 26.4299
1 30.5532 45.2189 26.5644
1 32.8769 45.1695 24.5495
1 34.627 47.2489 24.5872
1 34.4326 45.2367 26.6165
1 32.5389 47.4193 26.5606
1 36.6948 45.076 24.4697
1 38.7737 47.1714 24.5539
1 38.6031 44.8379 26.8021
1 36.7185 47.2875 26.7184
1 40.6665 44.9095 24.764
1 42.8494 47.0068 24.618
1 42.9051 44.9259 26.5799
1 40.84 47.1542 26.4883
1 45.1242 45.0495 24.7443
1 47.2753 47.0011 24.4235
1 47.3216 45.3476 26.6338
1 45.0072 47.2665 26.4601
1 49.4577 45.2229 24.7146
1 51.5467 45.0434 26.5011
1 49.6214 47.4583 26.2403
1 34.497 49.3704 26.896
1 36.632 49.2402 24.7958
1 38.7013 51.004 24.3473
1 38.7557 49.2873 26.4867
1 36.7246 51.7519 26.2341
1 41.0093 49.3148 24.278
1 43.2782 50.9848 24.178
1 42.9966 49.175 26.3326
1 40.8551 51.2442 26.1752
1 45.0137 49.0386 24.4619
1 47.3786 49.4358 26.1133
1 45.1403 51.3698 26.2883
1 38.9294 53.4943 26.2266
1 40.8955 53.2388 24.3333
1 42.9219 53.3184 26.2767
1 41.1462 55.5016 26.2808
1 24.0806 41.0567 28.6058
1 26.1448 43.1106 28.6636
1 26.2344 41.056 30.4808
1 24.3491 43.0842 30.7576
1 28.0798 40.7294 28.522
1 30.4143 43.091 28.4273
1 30.3241 40.8991 30.4706
1 28.3672 43.1273 30.4143
1 32.3693 40.9367 28.4452
1 34.6048 43.1339 28.6477
1 34.5542 40.8926 30.4852
1 32.4761 43.0389 30.5762
1 36.5963 40.8658 28.5696
1 38.7101 42.9332 28.7969
1 38.7356 40.7505 30.6022
1 36.582 42.9904 30.6681
1 40.8859 40.8542 28.7073
1 43.0174 42.8631 28.638
1 43.0955 40.9285 30.7292
1 40.9814 43.012 30.6611
1 45.2688 40.8614 28.6311
1 47.3737 43.2687 28.6204
1 47.4417 40.8899 30.4259
1 45.1117 43.1686 30.5003
1 49.6169 40.9832 28.5269
1 51.523 42.9722 28.4527
1 51.4239 40.8129 30.5948
1 49.5132 43.0923 30.4376
1 53.4907 40.7943 28.6343
1 55.4771 42.7885 28.6039
1 55.5864 40.7949 30.814
1 53.4555 43.0311 30.5904
1 57.6426 40.9405 28.7931
1 57.3928 42.9526 30.7923
1 26.3397 45.0951 30.6793
1 28.2944 45.216 28.6114
1 30.2979 47.4107 28.2421
1 30.5561 45.2942 30.5275
1 28.6225 47.3925 30.6713
1 32.4969 45.159 28.5767
1 34.616 47.2252 28.7036
1 34.4183 45.0095 30.6749
1 32.2507 47.6161 30.2195
1 36.5125 45.1062 28.5713
1 38.7731 47.1559 28.642
1 38.662 45.0283 30.615
1 36.6638 47.3941 30.7073
1 40.8819 45.0859 28.6818
1 42.9229 47.2948 28.5648
1 42.9894 45.1791 30.6672
1 40.7193 47.2352 30.5835
1 45.1104 45.367 28.6607
1 47.5108 47.6015 28.2081
1 47.3917 45.5252 30.3487
1 45.2966 47.6254 30.3985
1 49.4884 45.3678 28.3956
1 51.7361 47.326 28.1281
1 51.5939 45.2572 30.333
1 49.6406 47.5769 30.0784
1 53.6278 44.9497 28.3023
1 55.385 45.0321 30.6155
1 53.5602 47.2613 30.3021
1 30.4176 49.4971 30.4739
1 32.0114 49.8976 28.152
1 34.6318 51.9123 28.2345
1 34.4663 49.7999 29.9228
1 32.1114 51.9134 30.0953
1 36.8398 49.4267 28.4253
1 38.4729 51.57 28.4071
1 38.8974 49.2504 30.4449
1 36.6741 51.7916 30.4035
1 40.8651 49.4674 28.2686
1 42.9739 51.3019 28.3874
1 42.9952 49.5312 30.4647
1 40.7659 51.5754 30.3647
1 45.1031 49.3767 28.2258
1 47.2493 51.5262 28.1562
1 47.6536 49.6711 30.1718
1 45.2342 51.2669 30.1499
1 49.5836 49.6494 28.0772
1 51.7523 49.6146 30.0247
1 49.7314 51.6454 29.8763
1 34.2027 53.9526 30.2042
1 36.708 53.8482 28.1006
1 38.9848 55.7492 28.365
1 38.8304 53.528 30.1945
1 36.7025 55.6116 30.2852
1 40.8816 53.5074 28.3111
1 43.0826 55.3645 28.3869
1 43.0965 53.2403 30.335
1 41.1313 55.2469 30.4617
1 44.9584 53.2912 28.2527
1 47.2932 53.3953 30.0547
1 45.1103 55.384 30.4327
1 39.0881 57.3061 30.5686
1 41.222 57.3888 28.6864
1 43.1674 57.359 30.7761
1 22.7169 43.0328 33.0838
1 22.7529 40.9878 34.9199
1 24.732 40.8885 32.8819
1 26.382 43.1091 32.7069
1 26.7113 40.9535 34.7897
1 24.7824 43.1162 34.8394
1 28.4023 40.7501 32.584
1 30.4833 43.0739 32.4762
1 30.4798 40.6702 34.5619
1 28.5529 43.1035 34.4955
1 32.4404 40.843 32.5189
1 34.6492 43.058 32.695
1 34.56 40.8425 34.4569
1 32.6815 42.9536 34.6418
1 36.664 40.7434 32.5825
1 38.7476 42.9137 32.613
1 38.8853 40.844 34.6172
1 36.7984 42.9087 34.6403
1 40.9147 40.7871 32.5936
1 43.0157 43.2069 32.6919
1 43.0357 40.9247 34.5062
1 40.8859 42.8899 34.5961
1 45.1076 40.935 32.4845
1 47.1539 43.105 32.2304
1 47.279 40.9599 34.5203
1 45.2498 43.148 34.4115
1 49.3407 40.9352 32.6044
1 51.3775 43.04 32.5311
1 51.2084 40.878 34.5851
1 49.1723 43.1732 34.4108
1 53.3536 40.8862 32.6368
1 55.3821 43.0043 32.7384
1 55.2547 40.8995 34.7415
1 53.2388 43.0008 34.6109
1 57.4018 40.8754 32.997
1 59.4028 43.0376 33.0575
1 59.3315 40.909 35.0109
1 57.2368 43.0186 34.7947
1 22.7201 45.1017 35.0123
1 24.4073 45.3352 32.7264
1 26.5746 47.3233 32.3974
1 26.4754 45.3549 34.5258
1 24.493 47.2851 34.7293
1 28.5372 45.2113 32.4605
1 30.8507 47.3647 32.6504
1 30.5773 45.1932 34.6632
1 28.5703 47.38 34.4952
1 32.6801 45.2207 32.6831
1 34.5062 47.3234 32.3924
1 34.6394 45.1058 34.6293
1 32.6929 47.2437 34.6564
1 36.5685 45.2106 32.6134
1 38.6128 47.452 32.5998
1 38.7991 45.1308 34.5877
1 36.5749 47.3751 34.4546
1 40.7951 45.0427 32.6747
1 42.9937 47.321 32.4323
1 43.1032 45.2659 34.5498
1 40.847 47.2625 34.5404
1 45.1854 45.3239 32.2772
1 47.6404 47.7478 32.2166
1 47.2228 45.2904 34.0865
1 45.2238 47.3206 34.2766
1 49.3905 45.4189 32.2477
1 51.5437 47.4044 32.2661
1 51.2206 45.1893 34.3918
1 49.3924 47.3532 34.2864
1 53.3885 45.1494 32.6058
1 55.5615 47.302 32.5003
1 55.3777 45.1771 34.6662
1 53.2862 47.2383 34.5126
1 57.3938 45.117 32.691
1 59.2122 44.992 34.9136
1 57.3662 47.0985 34.7819
1 26.3495 49.391 34.5088
1 28.6216 49.5062 32.658
1 30.5386 51.4979 32.5103
1 30.5159 49.589 34.5006
1 28.33 51.5518 34.5797
1 32.5608 49.616 32.2536
1 34.3097 51.7255 32.179
1 34.4368 49.5021 34.4609
1 32.5864 51.5474 34.534
1 36.3427 49.7563 32.2335
1 38.5971 51.6455 32.2234
1 38.5769 49.6171 34.2798
1 36.5377 51.5905 34.4239
1 40.8811 49.3755 32.6291
1 42.9956 51.3998 32.6237
1 43.0584 49.2937 34.6841
1 40.779 51.4063 34.5333
1 45.263 49.5993 32.4386
1 47.6222 51.6422 32.1584
1 47.3942 49.555 34.3332
1 45.2978 51.4519 34.5657
1 49.6976 49.7343 32.0703
1 51.6975 51.6167 32.2271
1 51.4997 49.3831 34.5008
1 49.5259 51.552 34.3477
1 53.4182 49.3664 32.348
1 55.333 49.1714 34.6933
1 53.509 51.3567 34.5485
1 30.3289 53.5493 34.5512
1 32.2305 53.8244 32.4613
1 34.7807 55.8102 32.5593
1 34.644 53.6363 34.4016
1 32.5631 55.5708 34.4188
1 36.5319 53.6677 32.3367
1 38.8182 55.468 32.3981
1 38.7196 53.511 34.463
1 36.8597 55.6234 34.4213
1 40.943 53.4451 32.5502
1 43.2002 55.1863 32.468
1 43.1435 53.2987 34.6153
1 40.9947 55.3198 34.685
1 45.3775 53.3529 32.2689
1 47.5505 55.452 32.3094