LAMMPS data file via write_data, version 15 May 2015, timestep = 0

3815 atoms
6 atom types
1680 bonds
5 bond types
1470 angles
5 angle types
1260 dihedrals
5 dihedral types

-2.0809999999999999e+01 1.0081000000000000e+02 xlo xhi
-2.0507500000000000e+01 1.0050749999999999e+02 ylo yhi
-2.0045500000000001e+01 1.0004550000000000e+02 zlo zhi

Masses

1 107.868
2 12.0112
3 12.0112
4 32.064
5 15.9994
6 1.00797

Bond Coeffs # class2

1 1.53 299.67 -501.77 679.81
2 1.53 299.67 -501.77 679.81
3 1.823 225.277 -327.706 488.972
4 1.42 400.395 -835.195 1313.01
5 0.965 532.506 -1282.9 2004.77

Angle Coeffs # class2

1 112.67 39.516 -7.443 -9.5583
2 112.67 39.516 -7.443 -9.5583
3 112.564 47.0276 -10.679 -10.1687
4 105.8 52.7061 -12.109 -9.8681
5 111.27 54.5381 -8.3642 -13.0838

BondBond Coeffs

1 0 1.53 1.53
2 0 1.53 1.53
3 10.9186 1.53 1.823
4 -9.6879 1.42 0.965
5 11.4318 1.53 1.42

BondAngle Coeffs

1 8.016 8.016 1.53 1.53
2 8.016 8.016 1.53 1.53
3 -3.5621 22.3865 1.53 1.823
4 28.58 18.9277 1.42 0.965
5 2.6868 20.4033 1.53 1.42

Dihedral Coeffs # class2

1 0 0 0.0514 0 -0.143 0
2 0 0 0.0514 0 -0.143 0
3 -0.7017 0 0.0201 0 0.104 0
4 0 0 0 0 0.158 0
5 -0.6732 0 -0.4778 0 -0.167 0

AngleAngleTorsion Coeffs

1 -22.045 112.67 112.67
2 -22.045 112.67 112.67
3 -26.71 112.564 112.67
4 0 112.564 111.27
5 -12.1038 105.8 111.27

EndBondTorsion Coeffs

1 -0.0732 0 0 -0.0732 0 0 1.53 1.53
2 -0.0732 0 0 -0.0732 0 0 1.53 1.53
3 -0.7991 -0.959 0.5855 -0.1586 -0.7244 -0.2608 1.823 1.53
4 0 0 0 0 0 0 1.823 1.42
5 0 0.5343 0.9025 -0.58 0.9004 0 0.965 1.53

MiddleBondTorsion Coeffs

1 -17.787 -7.1877 0 1.53
2 -17.787 -7.1877 0 1.53
3 -4.2593 -5.6468 -3.3835 1.53
4 0 0 0 1.53
5 1.2472 0 0.7485 1.42

BondBond13 Coeffs

1 0 1.53 1.53
2 0 1.53 1.53
3 0 1.823 1.53
4 0 1.823 1.42
5 0 0.965 1.53

AngleTorsion Coeffs

1 0.3886 -0.3139 0.1389 0.3886 -0.3139 0.1389 112.67 112.67
2 0.3886 -0.3139 0.1389 0.3886 -0.3139 0.1389 112.67 112.67
3 1.1179 0.3638 0.9423 -2.0927 -0.1498 -1.7848 112.564 112.67
4 0 0 0 0 0 0 112.564 111.27
5 0.8726 -0.3577 0.3888 -3.5903 2.5225 0.4888 105.8 111.27

Atoms # full

1981 1932 2 0.0000000000000000e+00 5.5795482640000003e+01 4.9868682860000000e+01 1.3005434040000001e+01 0 0 0
1983 1932 2 0.0000000000000000e+00 5.6910640720000004e+01 5.0761119839999999e+01 1.2507065770000001e+01 0 0 0
1980 1932 3 0.0000000000000000e+00 5.7150600429999997e+01 5.0636779789999999e+01 1.1001155850000000e+01 0 0 0
2142 1950 3 0.0000000000000000e+00 2.9324666980000000e+01 1.7577955249999999e+01 1.7550109859999999e+01 0 0 0
2145 1950 2 0.0000000000000000e+00 3.0489360810000001e+01 1.8569652560000002e+01 1.7492883679999998e+01 0 0 0
2143 1950 2 0.0000000000000000e+00 3.0800968170000001e+01 1.9212459559999999e+01 1.8828319550000000e+01 0 0 0
2844 2028 3 0.0000000000000000e+00 2.5899814610000000e+01 2.1190633770000002e+01 1.7881734850000001e+01 0 0 0
3582 2110 3 0.0000000000000000e+00 2.8191978450000001e+01 2.1403774259999999e+01 1.4512205120000001e+01 0 0 0
3583 2110 2 0.0000000000000000e+00 2.9345541000000001e+01 2.2805149080000000e+01 1.6293350220000001e+01 0 0 0
3584 2110 2 0.0000000000000000e+00 3.0488550190000002e+01 2.4191295620000002e+01 1.8085523609999999e+01 0 0 0
3585 2110 2 0.0000000000000000e+00 2.9279874800000002e+01 2.2432746890000001e+01 1.4827713970000000e+01 0 0 0
3586 2110 2 0.0000000000000000e+00 3.1635736470000001e+01 2.5561063770000001e+01 1.9888511659999999e+01 0 0 0
3587 2110 2 0.0000000000000000e+00 3.0418462750000000e+01 2.3822759630000000e+01 1.6618310930000000e+01 0 0 0
3589 2110 2 0.0000000000000000e+00 3.1564933780000000e+01 2.5204887390000000e+01 1.8417097089999999e+01 0 0 0
2847 2028 2 0.0000000000000000e+00 2.7234930039999998e+01 2.1182489400000001e+01 1.8629217149999999e+01 0 0 0
2845 2028 2 0.0000000000000000e+00 2.7281826020000000e+01 2.2165597920000000e+01 1.9778598790000000e+01 0 0 0
2700 2012 3 0.0000000000000000e+00 2.6756355289999998e+01 2.5614200589999999e+01 1.4025101660000001e+01 0 0 0
2703 2012 2 0.0000000000000000e+00 2.6589267730000000e+01 2.5893138889999999e+01 1.5519734379999999e+01 0 0 0
2147 1950 2 0.0000000000000000e+00 3.1956096649999999e+01 2.0192123410000001e+01 1.8783510209999999e+01 0 0 0
3783 2132 2 0.0000000000000000e+00 6.0084037780000003e+01 2.5476985930000001e+01 1.9373826980000000e+01 0 0 0
3780 2132 3 0.0000000000000000e+00 6.0861381530000003e+01 2.5164890289999999e+01 1.8093439100000001e+01 0 0 0
2485 1988 2 0.0000000000000000e+00 1.8791246409999999e+01 3.1588779450000001e+01 1.9372247699999999e+01 0 0 0
2487 1988 2 0.0000000000000000e+00 1.8214836120000001e+01 3.0228174209999999e+01 1.9045360570000000e+01 0 0 0
2484 1988 3 0.0000000000000000e+00 1.6887895579999999e+01 3.0300125120000001e+01 1.8286884310000001e+01 0 0 0
2179 1954 2 0.0000000000000000e+00 2.2730855940000001e+01 2.8733568190000000e+01 1.9493686680000000e+01 0 0 0
2181 1954 2 0.0000000000000000e+00 2.1921455380000001e+01 2.8066698070000001e+01 1.8401477809999999e+01 0 0 0
2183 1954 2 0.0000000000000000e+00 2.3908607480000001e+01 2.9546520229999999e+01 1.8995567319999999e+01 0 0 0
2185 1954 2 0.0000000000000000e+00 2.5892053600000001e+01 3.1022254940000000e+01 1.9656106950000002e+01 0 0 0
2178 1954 3 0.0000000000000000e+00 2.0740289690000001e+01 2.7253881450000002e+01 1.8937856669999999e+01 0 0 0
2707 2012 2 0.0000000000000000e+00 2.8483968730000001e+01 2.8140335080000000e+01 1.9628393169999999e+01 0 0 0
2701 2012 2 0.0000000000000000e+00 2.7709951400000001e+01 2.6729368210000001e+01 1.6096534729999998e+01 0 0 0
2702 2012 2 0.0000000000000000e+00 2.8676595689999999e+01 2.7837985990000000e+01 1.8159713750000002e+01 0 0 0
2705 2012 2 0.0000000000000000e+00 2.7551033019999998e+01 2.7016193390000002e+01 1.7572435380000002e+01 0 0 0
3721 2125 5 -6.8500000000000005e-01 3.9786785129999998e+01 3.2932025910000000e+01 1.8541425700000001e+01 0 0 0
3724 2125 6 4.0000000000000002e-01 3.9919654850000001e+01 3.2402370449999999e+01 1.7746749879999999e+01 0 0 0
2281 1965 5 -6.8500000000000005e-01 3.4167755130000003e+01 3.1532773970000001e+01 1.9415994640000001e+01 0 0 0
2284 1965 6 4.0000000000000002e-01 3.3757911679999999e+01 3.1866409300000001e+01 1.8608881000000000e+01 0 0 0
3723 2125 2 0.0000000000000000e+00 4.0165496830000002e+01 3.2107433319999998e+01 1.9629877090000001e+01 0 0 0
3634 2115 6 4.0000000000000002e-01 4.8447921749999999e+01 3.1524808879999998e+01 1.9314702990000001e+01 0 0 0
3781 2132 2 0.0000000000000000e+00 5.9341526029999997e+01 2.6794345860000000e+01 1.9316825869999999e+01 0 0 0
3384 2088 3 0.0000000000000000e+00 1.3692781450000000e+01 3.3954715729999997e+01 1.9008352280000000e+01 0 0 0
3387 2088 2 0.0000000000000000e+00 1.4822376250000000e+01 3.3456951140000001e+01 1.9912422180000000e+01 0 0 0
3595 2111 5 -6.8500000000000005e-01 3.3504665369999998e+01 3.8014617919999999e+01 1.9278209690000001e+01 0 0 0
3598 2111 6 4.0000000000000002e-01 3.4305667880000001e+01 3.7601112370000003e+01 1.8933559420000002e+01 0 0 0
3597 2111 2 0.0000000000000000e+00 3.3735420230000003e+01 3.9415718079999998e+01 1.9314134599999999e+01 0 0 0
3199 2067 5 -6.8500000000000005e-01 3.9390956879999997e+01 3.5665424350000002e+01 1.7812156680000001e+01 0 0 0
3201 2067 2 0.0000000000000000e+00 3.9032615659999998e+01 3.6185302729999997e+01 1.9085056300000002e+01 0 0 0
3202 2067 6 4.0000000000000002e-01 3.8598136900000000e+01 3.5281677250000001e+01 1.7419311520000001e+01 0 0 0
3811 2135 5 -6.8500000000000005e-01 4.4109493260000001e+01 3.8939945219999998e+01 1.7935359949999999e+01 0 0 0
3813 2135 2 0.0000000000000000e+00 4.4430118559999997e+01 3.9430618289999998e+01 1.9228651050000000e+01 0 0 0
3814 2135 6 4.0000000000000002e-01 4.4779441830000003e+01 3.9282806399999998e+01 1.7331428530000000e+01 0 0 0
3200 2067 2 0.0000000000000000e+00 4.0303905489999998e+01 3.6819057460000003e+01 1.9655971529999999e+01 0 0 0
3739 2127 5 -6.8500000000000005e-01 5.1442058560000000e+01 3.5523807529999999e+01 1.9763067249999999e+01 0 0 0
3742 2127 6 4.0000000000000002e-01 5.1252861019999997e+01 3.5327724459999999e+01 1.8837427139999999e+01 0 0 0
3649 2117 5 -6.8500000000000005e-01 4.9611278530000000e+01 3.9464138030000001e+01 1.8144136430000000e+01 0 0 0
3651 2117 2 0.0000000000000000e+00 4.9790428159999998e+01 3.9739627839999997e+01 1.9527103420000000e+01 0 0 0
3652 2117 6 4.0000000000000002e-01 5.0381397249999999e+01 3.8964664460000002e+01 1.7846038820000000e+01 0 0 0
3596 2111 2 0.0000000000000000e+00 3.2437313080000003e+01 4.0079086300000000e+01 1.9789175029999999e+01 0 0 0
3793 2133 5 -6.8500000000000005e-01 3.7773921970000004e+01 4.2519180300000002e+01 1.8466564179999999e+01 0 0 0
3795 2133 2 0.0000000000000000e+00 3.8164970400000001e+01 4.1760704040000000e+01 1.9602031709999999e+01 0 0 0
3796 2133 6 4.0000000000000002e-01 3.8491390230000000e+01 4.2449321750000003e+01 1.7825038910000000e+01 0 0 0
3650 2117 2 0.0000000000000000e+00 4.8680286410000001e+01 4.0713562009999997e+01 1.9944849009999999e+01 0 0 0
3490 2099 6 4.0000000000000002e-01 3.6414875029999997e+01 5.0603073119999998e+01 1.8245729449999999e+01 0 0 0
3487 2099 5 -6.8500000000000005e-01 3.6623405460000001e+01 5.1023879999999998e+01 1.9088209150000001e+01 0 0 0
2317 1969 5 -6.8500000000000005e-01 4.7936359410000001e+01 4.9476768489999998e+01 1.9786519999999999e+01 0 0 0
2320 1969 6 4.0000000000000002e-01 4.8896221160000003e+01 4.9542377469999998e+01 1.9856380460000000e+01 0 0 0
1986 1932 2 0.0000000000000000e+00 5.1606685640000002e+01 4.7482700350000002e+01 1.8891248699999998e+01 0 0 0
1989 1932 2 0.0000000000000000e+00 5.2626113889999999e+01 4.8476814269999998e+01 1.8373519900000002e+01 0 0 0
1984 1932 2 0.0000000000000000e+00 5.3013729099999999e+01 4.8283317570000001e+01 1.6922988889999999e+01 0 0 0
3692 2122 2 0.0000000000000000e+00 5.4773849490000003e+01 5.3433940890000002e+01 1.8320873259999999e+01 0 0 0
3697 2122 2 0.0000000000000000e+00 5.3583145139999999e+01 5.3057250979999999e+01 1.9179025650000000e+01 0 0 0
3371 2086 2 0.0000000000000000e+00 5.8509429930000003e+01 5.2756778720000000e+01 1.8850080490000000e+01 0 0 0
1982 1932 2 0.0000000000000000e+00 5.4410583500000001e+01 4.9090030669999997e+01 1.4971703529999999e+01 0 0 0
1985 1932 2 0.0000000000000000e+00 5.5495372770000003e+01 5.0023429870000001e+01 1.4480446819999999e+01 0 0 0
1987 1932 2 0.0000000000000000e+00 5.4059139250000001e+01 4.9263175959999998e+01 1.6433752060000000e+01 0 0 0
3693 2122 2 0.0000000000000000e+00 5.5413280489999998e+01 5.4349605560000001e+01 1.4598510740000000e+01 0 0 0
3690 2122 3 0.0000000000000000e+00 5.6682369229999999e+01 5.4702327730000000e+01 1.3820110320000000e+01 0 0 0
3691 2122 2 0.0000000000000000e+00 5.5684070589999997e+01 5.4044528960000001e+01 1.6054735180000002e+01 0 0 0
3695 2122 2 0.0000000000000000e+00 5.4453327180000002e+01 5.3698539730000000e+01 1.6867069239999999e+01 0 0 0
3369 2086 2 0.0000000000000000e+00 5.9764392850000000e+01 5.4546890259999998e+01 1.7557674410000001e+01 0 0 0
3367 2086 2 0.0000000000000000e+00 5.9506286619999997e+01 5.3896900180000003e+01 1.8901018140000001e+01 0 0 0
2683 2010 2 0.0000000000000000e+00 5.5167793269999997e+01 5.7726997380000000e+01 1.9480865479999999e+01 0 0 0
2682 2010 3 0.0000000000000000e+00 5.6216938020000001e+01 5.8623443600000002e+01 1.7342880250000000e+01 0 0 0
2685 2010 2 0.0000000000000000e+00 5.6015678410000000e+01 5.8810356140000003e+01 1.8848585130000000e+01 0 0 0
3366 2086 3 0.0000000000000000e+00 6.0765792849999997e+01 5.5702907560000000e+01 1.7621355059999999e+01 0 0 0
3456 2096 3 0.0000000000000000e+00 2.7120487210000000e+01 1.7411914830000001e+01 2.0624937060000001e+01 0 0 0
3459 2096 2 0.0000000000000000e+00 2.8104541780000002e+01 1.7224632260000000e+01 2.1782382970000000e+01 0 0 0
3457 2096 2 0.0000000000000000e+00 2.9029582980000001e+01 1.8407232279999999e+01 2.1978250500000001e+01 0 0 0
3458 2096 2 0.0000000000000000e+00 3.0926645279999999e+01 1.9441185000000001e+01 2.3304512020000001e+01 0 0 0
3461 2096 2 0.0000000000000000e+00 3.0012504580000002e+01 1.8246419910000000e+01 2.3119922639999999e+01 0 0 0
3463 2096 2 0.0000000000000000e+00 3.1918252939999999e+01 1.9313718800000000e+01 2.4445169450000002e+01 0 0 0
3132 2060 3 0.0000000000000000e+00 5.9590442660000001e+01 1.6930772780000002e+01 2.6464094159999998e+01 0 0 0
3204 2068 3 0.0000000000000000e+00 1.7095518110000000e+01 2.0972183229999999e+01 2.6172857279999999e+01 0 0 0
3207 2068 2 0.0000000000000000e+00 1.8621032710000001e+01 2.1001386640000000e+01 2.6291368479999999e+01 0 0 0
2898 2034 3 0.0000000000000000e+00 1.9557077410000002e+01 2.1697650910000000e+01 2.1954757690000001e+01 0 0 0
2217 1958 2 0.0000000000000000e+00 1.8761085510000001e+01 2.6244443889999999e+01 2.1456249239999998e+01 0 0 0
2214 1958 3 0.0000000000000000e+00 1.7441797260000001e+01 2.5478025440000000e+01 2.1578535080000002e+01 0 0 0
2070 1942 3 0.0000000000000000e+00 1.5394693370000001e+01 2.5082759859999999e+01 2.4284090039999999e+01 0 0 0
2073 1942 2 0.0000000000000000e+00 1.5923270230000000e+01 2.5454290390000001e+01 2.5670963290000000e+01 0 0 0
2071 1942 2 0.0000000000000000e+00 1.7300226210000002e+01 2.6080759050000001e+01 2.5637567520000001e+01 0 0 0
2899 2034 2 0.0000000000000000e+00 2.1231725690000001e+01 2.3177991870000000e+01 2.3163169860000000e+01 0 0 0
2900 2034 2 0.0000000000000000e+00 2.2922935490000000e+01 2.4657485959999999e+01 2.4330682750000001e+01 0 0 0
2901 2034 2 0.0000000000000000e+00 1.9852968220000001e+01 2.2554386139999998e+01 2.3187826160000000e+01 0 0 0
2902 2034 2 0.0000000000000000e+00 2.4633604049999999e+01 2.6143299100000000e+01 2.5469284060000000e+01 0 0 0
2903 2034 2 0.0000000000000000e+00 2.1554256440000000e+01 2.4011909480000000e+01 2.4384943010000001e+01 0 0 0
2905 2034 2 0.0000000000000000e+00 2.3285886760000000e+01 2.5456672670000000e+01 2.5565326689999999e+01 0 0 0
2088 1944 3 0.0000000000000000e+00 2.4008911130000001e+01 2.0674793240000000e+01 2.1992513660000000e+01 0 0 0
2089 1944 2 0.0000000000000000e+00 2.5385723110000001e+01 2.1575754170000000e+01 2.3929807660000002e+01 0 0 0
2091 1944 2 0.0000000000000000e+00 2.5378881450000002e+01 2.0737791059999999e+01 2.2669830319999999e+01 0 0 0
3460 2096 2 0.0000000000000000e+00 3.2806930540000003e+01 2.0532072070000002e+01 2.4615297320000000e+01 0 0 0
2849 2028 2 0.0000000000000000e+00 2.8599309920000000e+01 2.2170083999999999e+01 2.0523530959999999e+01 0 0 0
2850 2028 2 0.0000000000000000e+00 3.1524894710000002e+01 2.5256753920000001e+01 2.5310859680000000e+01 0 0 0
2855 2028 2 0.0000000000000000e+00 3.2924198150000002e+01 2.5358560560000001e+01 2.5882299419999999e+01 0 0 0
2853 2028 2 0.0000000000000000e+00 3.1407663350000000e+01 2.4227300639999999e+01 2.4204502110000000e+01 0 0 0
2851 2028 2 0.0000000000000000e+00 2.9977514270000000e+01 2.3171144490000000e+01 2.2399803160000001e+01 0 0 0
2846 2028 2 0.0000000000000000e+00 2.8649311070000000e+01 2.3153728489999999e+01 2.1672939299999999e+01 0 0 0
2848 2028 2 0.0000000000000000e+00 3.0049242020000001e+01 2.4169031140000001e+01 2.3537057879999999e+01 0 0 0
2144 1950 2 0.0000000000000000e+00 3.2288429260000001e+01 2.0823913569999998e+01 2.0121160509999999e+01 0 0 0
2090 1944 2 0.0000000000000000e+00 2.6768230440000000e+01 2.2472539900000001e+01 2.5862379069999999e+01 0 0 0
2093 1944 2 0.0000000000000000e+00 2.6743909840000001e+01 2.1654607769999998e+01 2.4589431760000000e+01 0 0 0
2095 1944 2 0.0000000000000000e+00 2.8151771549999999e+01 2.2583780290000000e+01 2.6462627410000000e+01 0 0 0
3462 2096 2 0.0000000000000000e+00 3.4651294710000002e+01 2.1699399950000000e+01 2.5929035190000000e+01 0 0 0
3465 2096 2 0.0000000000000000e+00 3.3801303859999997e+01 2.0451328279999998e+01 2.5759935380000002e+01 0 0 0
2150 1950 2 0.0000000000000000e+00 3.7037918089999998e+01 2.5583072659999999e+01 2.3887500760000002e+01 0 0 0
2153 1950 2 0.0000000000000000e+00 3.6580348970000003e+01 2.4936580660000001e+01 2.2586341860000001e+01 0 0 0
2148 1950 2 0.0000000000000000e+00 3.5406803130000000e+01 2.3975360869999999e+01 2.2687494279999999e+01 0 0 0
2146 1950 2 0.0000000000000000e+00 3.3821449280000003e+01 2.2407512659999998e+01 2.1413536069999999e+01 0 0 0
2149 1950 2 0.0000000000000000e+00 3.3454746249999999e+01 2.1793184279999998e+01 2.0074346540000001e+01 0 0 0
2151 1950 2 0.0000000000000000e+00 3.4997489930000000e+01 2.3367229460000001e+01 2.1355554580000000e+01 0 0 0
15 15 1 0.0000000000000000e+00 4.0357200620000000e+01 2.6300100329999999e+01 2.6329399110000001e+01 0 0 0
2749 2017 5 -6.8500000000000005e-01 4.6051509860000003e+01 2.5750244140000000e+01 2.3186782839999999e+01 0 0 0
2751 2017 2 0.0000000000000000e+00 4.5121501920000000e+01 2.6422048570000001e+01 2.4025661469999999e+01 0 0 0
2752 2017 6 4.0000000000000002e-01 4.5958862300000000e+01 2.4804285050000001e+01 2.3355346680000000e+01 0 0 0
3746 2128 2 0.0000000000000000e+00 5.9309127810000000e+01 2.5467433929999999e+01 2.5404479980000001e+01 0 0 0
3441 2094 2 0.0000000000000000e+00 5.9255889889999999e+01 2.0468141559999999e+01 2.5116867070000001e+01 0 0 0
3439 2094 2 0.0000000000000000e+00 5.8595027920000000e+01 2.1576110839999998e+01 2.5909542080000001e+01 0 0 0
3440 2094 2 0.0000000000000000e+00 5.6413364410000000e+01 2.2690975190000000e+01 2.6595716480000000e+01 0 0 0
3443 2094 2 0.0000000000000000e+00 5.7084838869999999e+01 2.1593875890000000e+01 2.5794301990000001e+01 0 0 0
3445 2094 2 0.0000000000000000e+00 5.4901649480000003e+01 2.2695552830000000e+01 2.6477886200000000e+01 0 0 0
3744 2128 3 0.0000000000000000e+00 6.3483371730000002e+01 2.3259365079999998e+01 2.3566850660000000e+01 0 0 0
3745 2128 2 0.0000000000000000e+00 6.1381782530000002e+01 2.4379055019999999e+01 2.4452152250000001e+01 0 0 0
3747 2128 2 0.0000000000000000e+00 6.2500278469999998e+01 2.4427530290000000e+01 2.3437856669999999e+01 0 0 0
3749 2128 2 0.0000000000000000e+00 6.0379070280000001e+01 2.5506980899999999e+01 2.4328992840000002e+01 0 0 0
3438 2094 3 0.0000000000000000e+00 6.0781501769999998e+01 2.0458614350000001e+01 2.5239730829999999e+01 0 0 0
3261 2074 2 0.0000000000000000e+00 6.5582771300000005e+01 2.5965238570000000e+01 2.5296955109999999e+01 0 0 0
3258 2074 3 0.0000000000000000e+00 6.6869766240000004e+01 2.5357082370000001e+01 2.5860000610000000e+01 0 0 0
2034 1938 3 0.0000000000000000e+00 1.2577293400000000e+01 2.9287750240000001e+01 2.6608434679999998e+01 0 0 0
3186 2066 3 0.0000000000000000e+00 1.4126298900000000e+01 3.0341018680000001e+01 2.1451057429999999e+01 0 0 0
3187 2066 2 0.0000000000000000e+00 1.5637471200000000e+01 3.1082439420000000e+01 2.3355857850000000e+01 0 0 0
3189 2066 2 0.0000000000000000e+00 1.5454636570000000e+01 3.0140874860000000e+01 2.2184576029999999e+01 0 0 0
3191 2066 2 0.0000000000000000e+00 1.6946142200000001e+01 3.0902576450000002e+01 2.4096559520000000e+01 0 0 0
3188 2066 2 0.0000000000000000e+00 1.7118846890000000e+01 3.1848222730000000e+01 2.5267845149999999e+01 0 0 0
3193 2066 2 0.0000000000000000e+00 1.8425365450000001e+01 3.1674175259999998e+01 2.6016250610000000e+01 0 0 0
2215 1958 2 0.0000000000000000e+00 1.9151981350000000e+01 2.6972826000000001e+01 2.2724840159999999e+01 0 0 0
2904 2034 2 0.0000000000000000e+00 2.6381254200000001e+01 2.7597440720000002e+01 2.6608648299999999e+01 0 0 0
2486 1988 2 0.0000000000000000e+00 2.0690969469999999e+01 3.2884349819999997e+01 2.0452619550000001e+01 0 0 0
2489 1988 2 0.0000000000000000e+00 2.0108581539999999e+01 3.1528244019999999e+01 2.0114696500000001e+01 0 0 0
2491 1988 2 0.0000000000000000e+00 2.2023450850000000e+01 3.2799381259999997e+01 2.1166502000000001e+01 0 0 0
2225 1958 2 0.0000000000000000e+00 2.5539670940000001e+01 3.2288402560000002e+01 2.6034776690000001e+01 0 0 0
2220 1958 2 0.0000000000000000e+00 2.4195238109999998e+01 3.1592935560000001e+01 2.6156681060000000e+01 0 0 0
2223 1958 2 0.0000000000000000e+00 2.3801883700000001e+01 3.0811580660000001e+01 2.4915082930000001e+01 0 0 0
2216 1958 2 0.0000000000000000e+00 2.0832811360000001e+01 2.8487384800000001e+01 2.3881261830000000e+01 0 0 0
2218 1958 2 0.0000000000000000e+00 2.2498294829999999e+01 3.0041990280000000e+01 2.5025560380000002e+01 0 0 0
2219 1958 2 0.0000000000000000e+00 2.0456668850000000e+01 2.7735443119999999e+01 2.2620271679999998e+01 0 0 0
2221 1958 2 0.0000000000000000e+00 2.2134012219999999e+01 2.9259201050000001e+01 2.3777790069999998e+01 0 0 0
2180 1954 2 0.0000000000000000e+00 2.4700920100000001e+01 3.0200071330000000e+01 2.0110515589999999e+01 0 0 0
3591 2110 2 0.0000000000000000e+00 3.2713912960000002e+01 2.6566701890000001e+01 2.0242450710000000e+01 0 0 0
3588 2110 2 0.0000000000000000e+00 3.2770629880000001e+01 2.6905096050000001e+01 2.1719915390000001e+01 0 0 0
2710 2012 4 0.0000000000000000e+00 3.2083774570000003e+01 3.2760272980000003e+01 2.6497756960000000e+01 0 0 0
2712 2012 2 0.0000000000000000e+00 3.0944469450000000e+01 3.1432636259999999e+01 2.5978460309999999e+01 0 0 0
2704 2012 2 0.0000000000000000e+00 2.9605440139999999e+01 2.8943767550000000e+01 2.0247549060000001e+01 0 0 0
2706 2012 2 0.0000000000000000e+00 3.0468461990000002e+01 3.0046382900000001e+01 2.2367059709999999e+01 0 0 0
2708 2012 2 0.0000000000000000e+00 3.1313413619999999e+01 3.0888360980000002e+01 2.4599832530000000e+01 0 0 0
2709 2012 2 0.0000000000000000e+00 2.9331968310000001e+01 2.9317892069999999e+01 2.1686794280000001e+01 0 0 0
2711 2012 2 0.0000000000000000e+00 3.0115377429999999e+01 3.0509271620000000e+01 2.3762025829999999e+01 0 0 0
2187 1954 2 0.0000000000000000e+00 2.7869630810000000e+01 3.2478416439999997e+01 2.0379915239999999e+01 0 0 0
2184 1954 2 0.0000000000000000e+00 2.8654499049999998e+01 3.3091506959999997e+01 2.1528518680000001e+01 0 0 0
2182 1954 2 0.0000000000000000e+00 2.6665550230000001e+01 3.1653841020000002e+01 2.0799678799999999e+01 0 0 0
1 1 1 0.0000000000000000e+00 3.8904201510000000e+01 3.2867599490000003e+01 2.2567100520000000e+01 0 0 0
16 16 1 0.0000000000000000e+00 3.8720500950000002e+01 3.0831699369999999e+01 2.4425899510000001e+01 0 0 0
17 17 1 0.0000000000000000e+00 3.8435798650000002e+01 2.8759000780000001e+01 2.6382200240000000e+01 0 0 0
18 18 1 0.0000000000000000e+00 3.6406299590000003e+01 3.0760700230000001e+01 2.6457300190000002e+01 0 0 0
25 25 1 0.0000000000000000e+00 3.4263999939999998e+01 3.2615001679999999e+01 2.6437200550000000e+01 0 0 0
27 27 1 0.0000000000000000e+00 3.6333400730000001e+01 3.2532901760000001e+01 2.4376499180000000e+01 0 0 0
29 29 1 0.0000000000000000e+00 3.8592201230000001e+01 3.2625900270000002e+01 2.6545700069999999e+01 0 0 0
3590 2110 2 0.0000000000000000e+00 3.3911865229999997e+01 2.8228981019999999e+01 2.3579132080000001e+01 0 0 0
3592 2110 4 0.0000000000000000e+00 3.5008903500000002e+01 2.9696601869999999e+01 2.5713762280000001e+01 0 0 0
3593 2110 2 0.0000000000000000e+00 3.3847587590000003e+01 2.7903968809999999e+01 2.2096624370000001e+01 0 0 0
3594 2110 2 0.0000000000000000e+00 3.5086086270000003e+01 2.9129642489999998e+01 2.3968164439999999e+01 0 0 0
2285 1965 4 0.0000000000000000e+00 3.6109470369999997e+01 3.2982093810000002e+01 2.2517419820000001e+01 0 0 0
2152 1950 4 0.0000000000000000e+00 3.8765605930000000e+01 2.7337154389999998e+01 2.5289548870000001e+01 0 0 0
2154 1950 2 0.0000000000000000e+00 3.8173599240000001e+01 2.6601533889999999e+01 2.3708677290000001e+01 0 0 0
2282 1965 2 0.0000000000000000e+00 3.4672012330000001e+01 3.2285568240000003e+01 2.1621383670000000e+01 0 0 0
2283 1965 2 0.0000000000000000e+00 3.4637832639999999e+01 3.2662475590000000e+01 2.0136514660000000e+01 0 0 0
3 3 1 0.0000000000000000e+00 4.3035198209999997e+01 3.2948501589999999e+01 2.3015300750000002e+01 0 0 0
19 19 1 0.0000000000000000e+00 4.0672199249999998e+01 2.8628099440000000e+01 2.4562200550000000e+01 0 0 0
20 20 1 0.0000000000000000e+00 4.2973598480000000e+01 3.0524499890000001e+01 2.4731500629999999e+01 0 0 0
21 21 1 0.0000000000000000e+00 4.2948101039999997e+01 2.8095199579999999e+01 2.6206100459999998e+01 0 0 0
22 22 1 0.0000000000000000e+00 4.0737300869999999e+01 3.0697099690000002e+01 2.6514999390000000e+01 0 0 0
23 23 1 0.0000000000000000e+00 4.5401000979999999e+01 3.0473400120000001e+01 2.6201099400000000e+01 0 0 0
31 31 1 0.0000000000000000e+00 4.0923198700000000e+01 3.2822399140000002e+01 2.4692300800000002e+01 0 0 0
33 33 1 0.0000000000000000e+00 4.3131698610000001e+01 3.2620700839999998e+01 2.6550300600000000e+01 0 0 0
35 35 1 0.0000000000000000e+00 4.5266998289999997e+01 3.2784698489999997e+01 2.4556100850000000e+01 0 0 0
1917 1917 1 0.0000000000000000e+00 4.1017101289999999e+01 3.1005699159999999e+01 2.2723600390000001e+01 0 0 0
3722 2125 2 0.0000000000000000e+00 4.1390537260000002e+01 3.2699466710000003e+01 2.0339717860000000e+01 0 0 0
3725 2125 4 0.0000000000000000e+00 4.1126876830000000e+01 3.3072696690000001e+01 2.2120321270000002e+01 0 0 0
3635 2115 4 0.0000000000000000e+00 4.5456859590000001e+01 3.2556301120000001e+01 2.2684455870000001e+01 0 0 0
3632 2115 2 0.0000000000000000e+00 4.5951705930000003e+01 3.1434627530000000e+01 2.1327350620000001e+01 0 0 0
2750 2017 2 0.0000000000000000e+00 4.5384628300000003e+01 2.7928874969999999e+01 2.3896200180000001e+01 0 0 0
2753 2017 4 0.0000000000000000e+00 4.4483413700000000e+01 2.8944709780000000e+01 2.5139001850000000e+01 0 0 0
37 37 1 0.0000000000000000e+00 4.7454700469999999e+01 3.2503398900000001e+01 2.6492399219999999e+01 0 0 0
3631 2115 5 -6.8500000000000005e-01 4.7981525419999997e+01 3.1219728470000000e+01 2.0102079390000000e+01 0 0 0
3633 2115 2 0.0000000000000000e+00 4.6883113860000002e+01 3.2097270969999997e+01 2.0305944440000001e+01 0 0 0
3792 2132 2 0.0000000000000000e+00 5.2155788420000000e+01 3.3121025090000003e+01 2.5576231000000000e+01 0 0 0
3788 2132 2 0.0000000000000000e+00 5.3059570309999998e+01 3.3026733399999998e+01 2.4344993590000001e+01 0 0 0
2173 1953 5 -6.8500000000000005e-01 4.9722484590000001e+01 3.0709491730000000e+01 2.2574731830000001e+01 0 0 0
2174 1953 2 0.0000000000000000e+00 4.9483165739999997e+01 3.0458601000000002e+01 2.4935670850000001e+01 0 0 0
2175 1953 2 0.0000000000000000e+00 4.8783119200000002e+01 3.0860719679999999e+01 2.3630884170000002e+01 0 0 0
2176 1953 6 4.0000000000000002e-01 4.9226039890000003e+01 3.0721559520000000e+01 2.1746990199999999e+01 0 0 0
2177 1953 4 0.0000000000000000e+00 4.8608695980000000e+01 3.1022598270000000e+01 2.6447509770000000e+01 0 0 0
3782 2132 2 0.0000000000000000e+00 5.7829978939999997e+01 2.8430652620000000e+01 2.0535512919999999e+01 0 0 0
3785 2132 2 0.0000000000000000e+00 5.8578899380000003e+01 2.7116056440000001e+01 2.0583648680000000e+01 0 0 0
3748 2128 2 0.0000000000000000e+00 5.7354637150000002e+01 2.6623079300000001e+01 2.6517354970000000e+01 0 0 0
3753 2128 2 0.0000000000000000e+00 5.6236385349999999e+01 2.7641828539999999e+01 2.6426799769999999e+01 0 0 0
3751 2128 2 0.0000000000000000e+00 5.8270210270000000e+01 2.6558330540000000e+01 2.5304853439999999e+01 0 0 0
3784 2132 2 0.0000000000000000e+00 5.6304679870000001e+01 3.0041887280000001e+01 2.1784168240000000e+01 0 0 0
3786 2132 2 0.0000000000000000e+00 5.4744670870000000e+01 3.1599979399999999e+01 2.3066997529999998e+01 0 0 0
3787 2132 2 0.0000000000000000e+00 5.7078804020000000e+01 2.8740585329999998e+01 2.1812891010000001e+01 0 0 0
3789 2132 2 0.0000000000000000e+00 5.5566406250000000e+01 3.0327262879999999e+01 2.3075666429999998e+01 0 0 0
3791 2132 2 0.0000000000000000e+00 5.4009216309999999e+01 3.1845809939999999e+01 2.4368700029999999e+01 0 0 0
2650 2006 2 0.0000000000000000e+00 5.8892223360000003e+01 3.2887607570000000e+01 2.3508033749999999e+01 0 0 0
2653 2006 2 0.0000000000000000e+00 6.0176239010000003e+01 3.2520732879999997e+01 2.2789611820000001e+01 0 0 0
3259 2074 2 0.0000000000000000e+00 6.4788520809999994e+01 2.6745531079999999e+01 2.6323282240000001e+01 0 0 0
3263 2074 2 0.0000000000000000e+00 6.3507888790000003e+01 2.7351852420000000e+01 2.5786405559999999e+01 0 0 0
3265 2074 2 0.0000000000000000e+00 6.1424392699999999e+01 2.8729513170000001e+01 2.6306886670000001e+01 0 0 0
3155 2062 2 0.0000000000000000e+00 6.4857688899999999e+01 3.0411470410000000e+01 2.4529407500000001e+01 0 0 0
3154 2062 2 0.0000000000000000e+00 6.3004882809999998e+01 3.3264415739999997e+01 2.6465381619999999e+01 0 0 0
3157 2062 2 0.0000000000000000e+00 6.3232234949999999e+01 3.2027645110000002e+01 2.5614336009999999e+01 0 0 0
3152 2062 2 0.0000000000000000e+00 6.4683013919999993e+01 3.1636508939999999e+01 2.5405632019999999e+01 0 0 0
3151 2062 2 0.0000000000000000e+00 6.6298316959999994e+01 3.0008607860000001e+01 2.4289033889999999e+01 0 0 0
3153 2062 2 0.0000000000000000e+00 6.6449241639999997e+01 2.8793634409999999e+01 2.3397512440000000e+01 0 0 0
2647 2006 2 0.0000000000000000e+00 6.1912715910000003e+01 2.9136457440000001e+01 2.1930381770000000e+01 0 0 0
2648 2006 2 0.0000000000000000e+00 6.0426601410000004e+01 3.1027500150000002e+01 2.2723867420000001e+01 0 0 0
2649 2006 2 0.0000000000000000e+00 6.3207645419999999e+01 2.8726934430000000e+01 2.1262086870000001e+01 0 0 0
2651 2006 2 0.0000000000000000e+00 6.1713005070000001e+01 3.0634473799999999e+01 2.2027345660000002e+01 0 0 0
2646 2006 3 0.0000000000000000e+00 6.3379993440000000e+01 2.7209768300000000e+01 2.1157926560000000e+01 0 0 0
3279 2076 2 0.0000000000000000e+00 7.1634040830000004e+01 3.3016750340000002e+01 2.6377527239999999e+01 0 0 0
3150 2062 3 0.0000000000000000e+00 6.7905624390000000e+01 2.8392398830000001e+01 2.3150550840000001e+01 0 0 0
3385 2088 2 0.0000000000000000e+00 1.5566955569999999e+01 3.4577796939999999e+01 2.0604269030000001e+01 0 0 0
3386 2088 2 0.0000000000000000e+00 1.7424470899999999e+01 3.5235317230000000e+01 2.2192895889999999e+01 0 0 0
3388 2088 2 0.0000000000000000e+00 1.9258619310000000e+01 3.5905242919999999e+01 2.3811590190000000e+01 0 0 0
3389 2088 2 0.0000000000000000e+00 1.6685937880000001e+01 3.4106227869999998e+01 2.1507177349999999e+01 0 0 0
3391 2088 2 0.0000000000000000e+00 1.8528890610000001e+01 3.4773357390000001e+01 2.3119215010000001e+01 0 0 0
3393 2088 2 0.0000000000000000e+00 2.0316026690000001e+01 3.5436912540000002e+01 2.4788795470000000e+01 0 0 0