LAMMPS (15 May 2015)
Reading data file ...
  orthogonal box = (-100.81 -100.507 -100.046) to (150.81 150.507 150.046)
  1 by 1 by 1 MPI processor grid
  reading atoms ...
  4299 atoms
  scanning bonds ...
  2 = max bonds/atom
  scanning angles ...
  1 = max angles/atom
  scanning dihedrals ...
  2 = max dihedrals/atom
  reading bonds ...
  1648 bonds
  reading angles ...
  1442 angles
  reading dihedrals ...
  1236 dihedrals
Finding 1-2 1-3 1-4 neighbors ...
 Special bond factors lj:   0          0          0         
 Special bond factors coul: 0          0          0         
  2 = max # of 1-2 neighbors
  2 = max # of 1-3 neighbors
  4 = max # of 1-4 neighbors
  6 = max # of special neighbors
2445 atoms in group crystal
1854 atoms in group adsorbate
Neighbor list info ...
  5 neighbor list requests
  update every 1 steps, delay 5 steps, check yes
  master list distance cutoff = 13
Setting up run ...
Memory usage per processor = 8.23347 Mbytes
Step Temp E_pair E_mol TotEng Press 
       0            0   -4566.7871   -244.89424   -4811.6813   -20.474129 
Loop time of 3.09944e-06 on 1 procs for 0 steps with 4299 atoms

Pair  time (%) = 0 (0)
Bond  time (%) = 0 (0)
Neigh time (%) = 0 (0)
Comm  time (%) = 0 (0)
Outpt time (%) = 0 (0)
Other time (%) = 3.09944e-06 (100)

Nlocal:    4299 ave 4299 max 4299 min
Histogram: 1 0 0 0 0 0 0 0 0 0
Nghost:    0 ave 0 max 0 min
Histogram: 1 0 0 0 0 0 0 0 0 0
Neighs:    444182 ave 444182 max 444182 min
Histogram: 1 0 0 0 0 0 0 0 0 0
FullNghs:  888364 ave 888364 max 888364 min
Histogram: 1 0 0 0 0 0 0 0 0 0

Total # of neighbors = 888364
Ave neighs/atom = 206.644
Ave special neighs/atom = 2.01256
Neighbor list builds = 0
Dangerous builds = 0
System init for write_data ...
Step Temp E_pair E_mol TotEng Press 
       0            0   -4566.7871   -244.89424   -4811.6813   -20.474129 
       1            0   -4566.8766            0   -4566.8766   -1.8507596 
Loop time of 0.0388541 on 1 procs for 1 steps with 4299 atoms
Step Temp E_pair E_mol TotEng Press 
       1            0   -4566.8766            0   -4566.8766   -1.8507596 
       2            0   -4566.8048            0   -4566.8048   -1.8501857 
Loop time of 0.0387399 on 1 procs for 1 steps with 4299 atoms
Step Temp E_pair E_mol TotEng Press 
       2            0   -4566.8048            0   -4566.8048   -1.8501857 
       3            0   -4508.7894            0   -4508.7894   -1.5155511 
Loop time of 0.0387728 on 1 procs for 1 steps with 4299 atoms
1 atoms in group restOfchain
System init for delete_bonds ...
Deleting bonds ...
  1648 total bonds, 1647 turned on, 1 turned off
  1442 total angles, 1441 turned on, 1 turned off
  1236 total dihedrals, 1235 turned on, 1 turned off
  0 total impropers, 0 turned on, 0 turned off
Setting up run ...
Memory usage per processor = 8.23347 Mbytes
Step Temp E_pair E_mol TotEng Press 
       3            0   -4563.9339   -244.88983   -4808.8237   -43.792994 
       4            0   -4563.9339   -244.88983   -4808.8237   -43.792994 
Loop time of 0.022661 on 1 procs for 1 steps with 4299 atoms
13 atoms in group beginOfchain
System init for delete_bonds ...
Deleting bonds ...
  1648 total bonds, 1648 turned on, 0 turned off
  1442 total angles, 1442 turned on, 0 turned off
  1236 total dihedrals, 1236 turned on, 0 turned off
  0 total impropers, 0 turned on, 0 turned off
Setting up run ...
Memory usage per processor = 8.23347 Mbytes
Step Temp E_pair E_mol TotEng Press 
       4            0   -4566.6525   -244.89424   -4811.5468   -20.472625 
       5            0   -4566.6525   -244.89424   -4811.5468   -20.472625 
Loop time of 0.0418608 on 1 procs for 1 steps with 4299 atoms
1 atoms in group restOfchain
System init for delete_bonds ...
Deleting bonds ...
  1648 total bonds, 1647 turned on, 1 turned off
  1442 total angles, 1441 turned on, 1 turned off
  1236 total dihedrals, 1235 turned on, 1 turned off
  0 total impropers, 0 turned on, 0 turned off
Setting up run ...
Memory usage per processor = 8.23347 Mbytes
Step Temp E_pair E_mol TotEng Press 
       5            0   -4566.6525   -244.88983   -4811.5424   -20.450517 
       6            0   -4566.6525   -244.88983   -4811.5424   -20.450517 
Loop time of 0.0424101 on 1 procs for 1 steps with 4299 atoms
13 atoms in group beginOfchain
System init for delete_bonds ...
Deleting bonds ...
  1648 total bonds, 1648 turned on, 0 turned off
  1442 total angles, 1442 turned on, 0 turned off
  1236 total dihedrals, 1236 turned on, 0 turned off
  0 total impropers, 0 turned on, 0 turned off
Setting up run ...
Memory usage per processor = 8.23347 Mbytes
Step Temp E_pair E_mol TotEng Press 
       6            0   -4566.9787   -188.41451   -4755.3932   -21.219929 
       7            0   -4566.9787   -188.41451   -4755.3932   -21.219929 
Loop time of 0.0421801 on 1 procs for 1 steps with 4299 atoms
Setting up run ...
Memory usage per processor = 8.23347 Mbytes
Step Temp E_pair E_mol TotEng Press 
       7            0   -4566.9655   -195.07123   -4762.0368   -21.132583 
       8            0   -4566.9655   -195.07123   -4762.0368   -21.132583 
Loop time of 0.041877 on 1 procs for 1 steps with 4299 atoms
Setting up run ...
Memory usage per processor = 8.23347 Mbytes
Step Temp E_pair E_mol TotEng Press 
       8            0   -4566.7961    704.38812    -3862.408    -32.99719 
       9            0   -4566.7961    704.38812    -3862.408    -32.99719 
Loop time of 0.0420561 on 1 procs for 1 steps with 4299 atoms
Setting up run ...
Memory usage per processor = 8.23347 Mbytes
Step Temp E_pair E_mol TotEng Press 
       9            0   -4566.8708    104.87846   -4461.9924   -25.383786 
      10            0   -4566.8708    104.87846   -4461.9924   -25.383786 
Loop time of 0.042268 on 1 procs for 1 steps with 4299 atoms
Setting up run ...
Memory usage per processor = 8.23347 Mbytes
Step Temp E_pair E_mol TotEng Press 
      10            0   -4566.8203   -205.87745   -4772.6977   -21.021319 
      11            0   -4566.8203   -205.87745   -4772.6977   -21.021319 
Loop time of 0.041996 on 1 procs for 1 steps with 4299 atoms
Setting up run ...
Memory usage per processor = 8.23347 Mbytes
Step Temp E_pair E_mol TotEng Press 
      11            0   -4566.8203   -205.87745   -4772.6977   -21.021319 
      12            0   -4566.8203   -205.87745   -4772.6977   -21.021319 
Loop time of 0.0422561 on 1 procs for 1 steps with 4299 atoms
Step Temp E_pair E_mol TotEng Press 
      12            0   -4566.8203   -205.87745   -4772.6977   -21.021319 
      13            0   -4566.9169   -244.89424   -4811.8111   -20.475266 
Loop time of 0.0424521 on 1 procs for 1 steps with 4299 atoms
4 atoms in group restOfchain
System init for delete_bonds ...
Deleting bonds ...
  1648 total bonds, 1644 turned on, 4 turned off
  1442 total angles, 1439 turned on, 3 turned off
  1236 total dihedrals, 1234 turned on, 2 turned off
  0 total impropers, 0 turned on, 0 turned off
Setting up run ...
Memory usage per processor = 8.23347 Mbytes
Step Temp E_pair E_mol TotEng Press 
      13            0   -4566.9169   -243.26662   -4810.1835   -20.478782 
      14            0   -4566.9169   -243.26662   -4810.1835   -20.478782 
Loop time of 0.0417981 on 1 procs for 1 steps with 4299 atoms
2 atoms in group beginOfchain
3 atoms in group restOfchain
System init for delete_bonds ...
Deleting bonds ...
  1648 total bonds, 1645 turned on, 3 turned off
  1442 total angles, 1439 turned on, 3 turned off
  1236 total dihedrals, 1234 turned on, 2 turned off
  0 total impropers, 0 turned on, 0 turned off
Setting up run ...
Memory usage per processor = 8.23347 Mbytes
Step Temp E_pair E_mol TotEng Press 
      14            0   -4566.9169   -243.25428   -4810.1712   -20.469927 
      15            0   -4566.9169   -243.25428   -4810.1712   -20.469927 
Loop time of 0.0422821 on 1 procs for 1 steps with 4299 atoms
3 atoms in group beginOfchain
2 atoms in group restOfchain
System init for delete_bonds ...
Deleting bonds ...
  1648 total bonds, 1646 turned on, 2 turned off
  1442 total angles, 1440 turned on, 2 turned off
  1236 total dihedrals, 1234 turned on, 2 turned off
  0 total impropers, 0 turned on, 0 turned off
Setting up run ...
Memory usage per processor = 8.23347 Mbytes
Step Temp E_pair E_mol TotEng Press 
      15            0   -4566.9169   -243.20542   -4810.1223   -20.458107 
      16            0   -4566.9169   -243.20542   -4810.1223   -20.458107 
Loop time of 0.041934 on 1 procs for 1 steps with 4299 atoms
4 atoms in group beginOfchain
1 atoms in group restOfchain
System init for delete_bonds ...
Deleting bonds ...
  1648 total bonds, 1647 turned on, 1 turned off
  1442 total angles, 1441 turned on, 1 turned off
  1236 total dihedrals, 1235 turned on, 1 turned off
  0 total impropers, 0 turned on, 0 turned off
Setting up run ...
Memory usage per processor = 8.23347 Mbytes
Step Temp E_pair E_mol TotEng Press 
      16            0   -4566.9169   -242.99228   -4809.9092   -20.464598 
      17            0   -4566.9169   -242.99228   -4809.9092   -20.464598 
Loop time of 0.042125 on 1 procs for 1 steps with 4299 atoms
5 atoms in group beginOfchain
System init for delete_bonds ...
Deleting bonds ...
  1648 total bonds, 1648 turned on, 0 turned off
  1442 total angles, 1442 turned on, 0 turned off
  1236 total dihedrals, 1236 turned on, 0 turned off
  0 total impropers, 0 turned on, 0 turned off
Setting up run ...
Memory usage per processor = 8.23347 Mbytes
Step Temp E_pair E_mol TotEng Press 
      17            0   -4566.9169   -244.89424   -4811.8111   -20.475266 
      18            0   -4566.9169   -244.89424   -4811.8111   -20.475266 
Loop time of 0.0421209 on 1 procs for 1 steps with 4299 atoms
4 atoms in group restOfchain
System init for delete_bonds ...
Deleting bonds ...
  1648 total bonds, 1644 turned on, 4 turned off
  1442 total angles, 1439 turned on, 3 turned off
  1236 total dihedrals, 1234 turned on, 2 turned off
  0 total impropers, 0 turned on, 0 turned off
Setting up run ...
Memory usage per processor = 8.23347 Mbytes
Step Temp E_pair E_mol TotEng Press 
      18            0   -4566.9169   -243.26662   -4810.1835   -20.478782 
      19            0   -4566.9169   -243.26662   -4810.1835   -20.478782 
Loop time of 0.042294 on 1 procs for 1 steps with 4299 atoms
2 atoms in group beginOfchain
3 atoms in group restOfchain
System init for delete_bonds ...
Deleting bonds ...
  1648 total bonds, 1645 turned on, 3 turned off
  1442 total angles, 1439 turned on, 3 turned off
  1236 total dihedrals, 1234 turned on, 2 turned off
  0 total impropers, 0 turned on, 0 turned off
3 atoms in group beginOfchain
2 atoms in group restOfchain
System init for delete_bonds ...
Deleting bonds ...
  1648 total bonds, 1646 turned on, 2 turned off
  1442 total angles, 1440 turned on, 2 turned off
  1236 total dihedrals, 1234 turned on, 2 turned off
  0 total impropers, 0 turned on, 0 turned off
4 atoms in group beginOfchain
1 atoms in group restOfchain
System init for delete_bonds ...
Deleting bonds ...
  1648 total bonds, 1647 turned on, 1 turned off
  1442 total angles, 1441 turned on, 1 turned off
  1236 total dihedrals, 1235 turned on, 1 turned off
  0 total impropers, 0 turned on, 0 turned off
Setting up run ...
Memory usage per processor = 8.23347 Mbytes
Step Temp E_pair E_mol TotEng Press 
      19            0   -4567.0593   -193.41112   -4760.4704   -19.645018 
      20            0   -4567.0593   -193.41112   -4760.4704   -19.645018 
Loop time of 0.0424449 on 1 procs for 1 steps with 4299 atoms
Setting up run ...
Memory usage per processor = 8.23347 Mbytes
Step Temp E_pair E_mol TotEng Press 
      20            0   -4566.9334   -243.11874   -4810.0522   -20.469345 
      21            0   -4566.9334   -243.11874   -4810.0522   -20.469345 
Loop time of 0.04196 on 1 procs for 1 steps with 4299 atoms
Setting up run ...
Memory usage per processor = 8.23347 Mbytes
Step Temp E_pair E_mol TotEng Press 
      21            0   -4566.9486   -241.80326   -4808.7518   -20.344999 
      22            0   -4566.9486   -241.80326   -4808.7518   -20.344999 
Loop time of 0.0421481 on 1 procs for 1 steps with 4299 atoms
Setting up run ...
Memory usage per processor = 8.23347 Mbytes
Step Temp E_pair E_mol TotEng Press 
      22            0   -4566.9343   -138.26491   -4705.1992   -19.193327 
      23            0   -4566.9343   -138.26491   -4705.1992   -19.193327 
Loop time of 0.042599 on 1 procs for 1 steps with 4299 atoms
Setting up run ...
Memory usage per processor = 8.23347 Mbytes
Step Temp E_pair E_mol TotEng Press 
      23            0   -4566.9589    115.18323   -4451.7757   -17.929105 
      24            0   -4566.9589    115.18323   -4451.7757   -17.929105 
Loop time of 0.0419269 on 1 procs for 1 steps with 4299 atoms
Setting up run ...
Memory usage per processor = 8.23347 Mbytes
Step Temp E_pair E_mol TotEng Press 
      24            0   -4566.9334   -243.11874   -4810.0522   -20.469345 
      25            0   -4566.9334   -243.11874   -4810.0522   -20.469345 
Loop time of 0.0418608 on 1 procs for 1 steps with 4299 atoms
5 atoms in group beginOfchain
System init for delete_bonds ...
Deleting bonds ...
  1648 total bonds, 1648 turned on, 0 turned off
  1442 total angles, 1442 turned on, 0 turned off
  1236 total dihedrals, 1236 turned on, 0 turned off
  0 total impropers, 0 turned on, 0 turned off
Setting up run ...
Memory usage per processor = 8.23347 Mbytes
Step Temp E_pair E_mol TotEng Press 
      25            0   -4566.9359   -234.39862   -4801.3346   -20.634371 
      26            0   -4566.9359   -234.39862   -4801.3346   -20.634371 
Loop time of 0.0419691 on 1 procs for 1 steps with 4299 atoms
Setting up run ...
Memory usage per processor = 8.23347 Mbytes
Step Temp E_pair E_mol TotEng Press 
      26            0   -4566.9362   -234.65816   -4801.5944   -20.632033 
      27            0   -4566.9362   -234.65816   -4801.5944   -20.632033 
Loop time of 0.042872 on 1 procs for 1 steps with 4299 atoms
Setting up run ...
Memory usage per processor = 8.23347 Mbytes
Step Temp E_pair E_mol TotEng Press 
      27            0   -4566.9338   -147.24131   -4714.1751   -21.666114 
      28            0   -4566.9338   -147.24131   -4714.1751   -21.666114 
Loop time of 0.042119 on 1 procs for 1 steps with 4299 atoms
Setting up run ...
Memory usage per processor = 8.23347 Mbytes
Step Temp E_pair E_mol TotEng Press 
      28            0   -4566.9335   -243.79547    -4810.729   -20.534787 
      29            0   -4566.9335   -243.79547    -4810.729   -20.534787 
Loop time of 0.042315 on 1 procs for 1 steps with 4299 atoms
Setting up run ...
Memory usage per processor = 8.23347 Mbytes
Step Temp E_pair E_mol TotEng Press 
      29            0   -4566.9335   -243.89194   -4810.8254   -20.532483 
      30            0   -4566.9335   -243.89194   -4810.8254   -20.532483 
Loop time of 0.042129 on 1 procs for 1 steps with 4299 atoms
Setting up run ...
Memory usage per processor = 8.23347 Mbytes
Step Temp E_pair E_mol TotEng Press 
      30            0   -4566.9335   -243.79547    -4810.729   -20.534787 
      31            0   -4566.9335   -243.79547    -4810.729   -20.534787 
Loop time of 0.0419838 on 1 procs for 1 steps with 4299 atoms
Step Temp E_pair E_mol TotEng Press 
      31            0   -4566.9335   -243.79547    -4810.729   -20.534787 
      32            0   -4521.3952   -244.89424   -4766.2894   -20.183585 
Loop time of 0.0422149 on 1 procs for 1 steps with 4299 atoms
Step Temp E_pair E_mol TotEng Press 
      32            0   -4521.3952   -244.89424   -4766.2894   -20.183585 
      33            0   -4567.0237   -244.89424   -4811.9179   -20.475613 
Loop time of 0.0421438 on 1 procs for 1 steps with 4299 atoms
Step Temp E_pair E_mol TotEng Press 
      33            0   -4567.0237   -244.89424   -4811.9179   -20.475613 
      34            0   -4566.8207   -244.89424   -4811.7149   -20.473788 
Loop time of 0.0421829 on 1 procs for 1 steps with 4299 atoms
4 atoms in group restOfchain
System init for delete_bonds ...
Deleting bonds ...
  1648 total bonds, 1644 turned on, 4 turned off
  1442 total angles, 1439 turned on, 3 turned off
  1236 total dihedrals, 1234 turned on, 2 turned off
  0 total impropers, 0 turned on, 0 turned off
Setting up run ...
Memory usage per processor = 8.23347 Mbytes
Step Temp E_pair E_mol TotEng Press 
      34            0   -4566.8562   -243.26662   -4810.1228   -20.477611 
      35            0   -4566.8562   -243.26662   -4810.1228   -20.477611 
Loop time of 0.0420799 on 1 procs for 1 steps with 4299 atoms
2 atoms in group beginOfchain
3 atoms in group restOfchain
System init for delete_bonds ...
Deleting bonds ...
  1648 total bonds, 1645 turned on, 3 turned off
  1442 total angles, 1439 turned on, 3 turned off
  1236 total dihedrals, 1234 turned on, 2 turned off
  0 total impropers, 0 turned on, 0 turned off
Setting up run ...
Memory usage per processor = 8.23347 Mbytes
Step Temp E_pair E_mol TotEng Press 
      35            0   -4566.8562   -243.25428   -4810.1104   -20.468756 
      36            0   -4566.8562   -243.25428   -4810.1104   -20.468756 
Loop time of 0.0424421 on 1 procs for 1 steps with 4299 atoms
3 atoms in group beginOfchain
2 atoms in group restOfchain
System init for delete_bonds ...
Deleting bonds ...
  1648 total bonds, 1646 turned on, 2 turned off
  1442 total angles, 1440 turned on, 2 turned off
  1236 total dihedrals, 1234 turned on, 2 turned off
  0 total impropers, 0 turned on, 0 turned off
Setting up run ...
Memory usage per processor = 8.23347 Mbytes
Step Temp E_pair E_mol TotEng Press 
      36            0   -4566.8562   -243.20542   -4810.0616   -20.456936 
      37            0   -4566.8562   -243.20542   -4810.0616   -20.456936 
Loop time of 0.0426068 on 1 procs for 1 steps with 4299 atoms
4 atoms in group beginOfchain
1 atoms in group restOfchain
System init for delete_bonds ...
Deleting bonds ...
  1648 total bonds, 1647 turned on, 1 turned off
  1442 total angles, 1441 turned on, 1 turned off
  1236 total dihedrals, 1235 turned on, 1 turned off
  0 total impropers, 0 turned on, 0 turned off
Setting up run ...
Memory usage per processor = 8.23347 Mbytes
Step Temp E_pair E_mol TotEng Press 
      37            0   -4566.8562   -242.99228   -4809.8484   -20.463427 
      38            0   -4566.8562   -242.99228   -4809.8484   -20.463427 
Loop time of 0.042089 on 1 procs for 1 steps with 4299 atoms
5 atoms in group beginOfchain
System init for delete_bonds ...
Deleting bonds ...
  1648 total bonds, 1648 turned on, 0 turned off
  1442 total angles, 1442 turned on, 0 turned off
  1236 total dihedrals, 1236 turned on, 0 turned off
  0 total impropers, 0 turned on, 0 turned off
Setting up run ...
Memory usage per processor = 8.23347 Mbytes
Step Temp E_pair E_mol TotEng Press 
      38            0   -4566.8562   -244.89424   -4811.7504   -20.474095 
      39            0   -4566.8562   -244.89424   -4811.7504   -20.474095 
Loop time of 0.041795 on 1 procs for 1 steps with 4299 atoms
4 atoms in group restOfchain
System init for delete_bonds ...
Deleting bonds ...
  1648 total bonds, 1644 turned on, 4 turned off
  1442 total angles, 1439 turned on, 3 turned off
  1236 total dihedrals, 1234 turned on, 2 turned off
  0 total impropers, 0 turned on, 0 turned off
Setting up run ...
Memory usage per processor = 8.23347 Mbytes
Step Temp E_pair E_mol TotEng Press 
      39            0   -4566.8562   -243.26662   -4810.1228   -20.477611 
      40            0   -4566.8562   -243.26662   -4810.1228   -20.477611 
Loop time of 0.041929 on 1 procs for 1 steps with 4299 atoms
2 atoms in group beginOfchain
3 atoms in group restOfchain
System init for delete_bonds ...
Deleting bonds ...
  1648 total bonds, 1645 turned on, 3 turned off
  1442 total angles, 1439 turned on, 3 turned off
  1236 total dihedrals, 1234 turned on, 2 turned off
  0 total impropers, 0 turned on, 0 turned off
3 atoms in group beginOfchain
2 atoms in group restOfchain
System init for delete_bonds ...
Deleting bonds ...
  1648 total bonds, 1646 turned on, 2 turned off
  1442 total angles, 1440 turned on, 2 turned off
  1236 total dihedrals, 1234 turned on, 2 turned off
  0 total impropers, 0 turned on, 0 turned off
4 atoms in group beginOfchain
1 atoms in group restOfchain
System init for delete_bonds ...
Deleting bonds ...
  1648 total bonds, 1647 turned on, 1 turned off
  1442 total angles, 1441 turned on, 1 turned off
  1236 total dihedrals, 1235 turned on, 1 turned off
  0 total impropers, 0 turned on, 0 turned off
Setting up run ...
Memory usage per processor = 8.23347 Mbytes
Step Temp E_pair E_mol TotEng Press 
      40            0     -4566.86    -230.5729   -4797.4329   -20.092666 
      41            0     -4566.86    -230.5729   -4797.4329   -20.092666 
Loop time of 0.041939 on 1 procs for 1 steps with 4299 atoms
Setting up run ...
Memory usage per processor = 8.23347 Mbytes
Step Temp E_pair E_mol TotEng Press 
      41            0   -4566.9695   -42.017223   -4608.9867   -18.615706 
      42            0   -4566.9695   -42.017223   -4608.9867   -18.615706 
Loop time of 0.0419691 on 1 procs for 1 steps with 4299 atoms
Setting up run ...
Memory usage per processor = 8.23347 Mbytes
Step Temp E_pair E_mol TotEng Press 
      42            0   -4566.9733    18.225795   -4548.7475   -18.325574 
      43            0   -4566.9733    18.225795   -4548.7475   -18.325574 
Loop time of 0.041975 on 1 procs for 1 steps with 4299 atoms
Setting up run ...
Memory usage per processor = 8.23347 Mbytes
Step Temp E_pair E_mol TotEng Press 
      43            0   -4566.8876    452.13871   -4114.7489   -16.945328 
      44            0   -4566.8876    452.13871   -4114.7489   -16.945328 
Loop time of 0.0422201 on 1 procs for 1 steps with 4299 atoms
Setting up run ...
Memory usage per processor = 8.23347 Mbytes
Step Temp E_pair E_mol TotEng Press 
      44            0    -4566.927    1045.7727   -3521.1543   -15.964575 
      45            0    -4566.927    1045.7727   -3521.1543   -15.964575 
Loop time of 0.0421948 on 1 procs for 1 steps with 4299 atoms
Setting up run ...
Memory usage per processor = 8.23347 Mbytes
Step Temp E_pair E_mol TotEng Press 
      45            0     -4566.86    -230.5729   -4797.4329   -20.092666 
      46            0     -4566.86    -230.5729   -4797.4329   -20.092666 
Loop time of 0.0419371 on 1 procs for 1 steps with 4299 atoms
5 atoms in group beginOfchain
System init for delete_bonds ...
Deleting bonds ...
  1648 total bonds, 1648 turned on, 0 turned off
  1442 total angles, 1442 turned on, 0 turned off
  1236 total dihedrals, 1236 turned on, 0 turned off
  0 total impropers, 0 turned on, 0 turned off
Setting up run ...
Memory usage per processor = 8.23347 Mbytes
Step Temp E_pair E_mol TotEng Press 
      46            0     -4566.86   -232.05143   -4798.9114   -20.084216 
      47            0     -4566.86   -232.05143   -4798.9114   -20.084216 
Loop time of 0.0421619 on 1 procs for 1 steps with 4299 atoms
Setting up run ...
Memory usage per processor = 8.23347 Mbytes
Step Temp E_pair E_mol TotEng Press 
      47            0   -4566.8627   -181.92752   -4748.7902   -19.521691 
      48            0   -4566.8627   -181.92752   -4748.7902   -19.521691 
Loop time of 0.0421629 on 1 procs for 1 steps with 4299 atoms
Setting up run ...
Memory usage per processor = 8.23347 Mbytes
Step Temp E_pair E_mol TotEng Press 
      48            0     -4566.86   -231.50121   -4798.3612   -20.113741 
      49            0     -4566.86   -231.50121   -4798.3612   -20.113741 
Loop time of 0.0419869 on 1 procs for 1 steps with 4299 atoms
Setting up run ...
Memory usage per processor = 8.23347 Mbytes
Step Temp E_pair E_mol TotEng Press 
      49            0     -4566.86   -203.74093   -4770.6009   -20.418202 
      50            0     -4566.86   -203.74093   -4770.6009   -20.418202 
Loop time of 0.041986 on 1 procs for 1 steps with 4299 atoms
Setting up run ...
Memory usage per processor = 8.23347 Mbytes
Step Temp E_pair E_mol TotEng Press 
      50            0   -4566.8635   -229.27321   -4796.1367   -19.974571 
      51            0   -4566.8635   -229.27321   -4796.1367   -19.974571 
Loop time of 0.041868 on 1 procs for 1 steps with 4299 atoms
Setting up run ...
Memory usage per processor = 8.23347 Mbytes
Step Temp E_pair E_mol TotEng Press 
      51            0     -4566.86   -231.50121   -4798.3612   -20.113741 
      52            0     -4566.86   -231.50121   -4798.3612   -20.113741 
Loop time of 0.042196 on 1 procs for 1 steps with 4299 atoms
Step Temp E_pair E_mol TotEng Press 
      52            0     -4566.86   -231.50121   -4798.3612   -20.113741 
      53            0   -4500.4976   -244.89424   -4745.3918   -20.170113 
Loop time of 0.0424101 on 1 procs for 1 steps with 4299 atoms
5 atoms in group restOfchain
System init for delete_bonds ...
Deleting bonds ...
  1648 total bonds, 1643 turned on, 5 turned off
  1442 total angles, 1437 turned on, 5 turned off
  1236 total dihedrals, 1231 turned on, 5 turned off
  0 total impropers, 0 turned on, 0 turned off
Setting up run ...
Memory usage per processor = 8.23347 Mbytes
Step Temp E_pair E_mol TotEng Press 
      53            0   -4566.7653    -244.8968   -4811.6621   -20.359182 
      54            0   -4566.7653    -244.8968   -4811.6621   -20.359182 
Loop time of 0.0419052 on 1 procs for 1 steps with 4299 atoms
9 atoms in group beginOfchain
4 atoms in group restOfchain
System init for delete_bonds ...
Deleting bonds ...
  1648 total bonds, 1644 turned on, 4 turned off
  1442 total angles, 1438 turned on, 4 turned off
  1236 total dihedrals, 1232 turned on, 4 turned off
  0 total impropers, 0 turned on, 0 turned off
Setting up run ...
Memory usage per processor = 8.23347 Mbytes
Step Temp E_pair E_mol TotEng Press 
      54            0   -4566.7653   -244.89778   -4811.6631   -20.381357 
      55            0   -4566.7653   -244.89778   -4811.6631   -20.381357 
Loop time of 0.042006 on 1 procs for 1 steps with 4299 atoms
10 atoms in group beginOfchain
3 atoms in group restOfchain
System init for delete_bonds ...
Deleting bonds ...
  1648 total bonds, 1645 turned on, 3 turned off
  1442 total angles, 1439 turned on, 3 turned off
  1236 total dihedrals, 1233 turned on, 3 turned off
  0 total impropers, 0 turned on, 0 turned off
Setting up run ...
Memory usage per processor = 8.23347 Mbytes
Step Temp E_pair E_mol TotEng Press 
      55            0   -4566.7653   -244.89401   -4811.6593   -20.404042 
      56            0   -4566.7653   -244.89401   -4811.6593   -20.404042 
Loop time of 0.0421522 on 1 procs for 1 steps with 4299 atoms
11 atoms in group beginOfchain
2 atoms in group restOfchain
System init for delete_bonds ...
Deleting bonds ...
  1648 total bonds, 1646 turned on, 2 turned off
  1442 total angles, 1440 turned on, 2 turned off
  1236 total dihedrals, 1234 turned on, 2 turned off
  0 total impropers, 0 turned on, 0 turned off
Setting up run ...
Memory usage per processor = 8.23347 Mbytes
Step Temp E_pair E_mol TotEng Press 
      56            0   -4566.7653   -244.88619   -4811.6515   -20.424925 
      57            0   -4566.7653   -244.88619   -4811.6515   -20.424925 
Loop time of 0.042094 on 1 procs for 1 steps with 4299 atoms
12 atoms in group beginOfchain
1 atoms in group restOfchain
System init for delete_bonds ...
Deleting bonds ...
  1648 total bonds, 1647 turned on, 1 turned off
  1442 total angles, 1441 turned on, 1 turned off
  1236 total dihedrals, 1235 turned on, 1 turned off
  0 total impropers, 0 turned on, 0 turned off
Setting up run ...
Memory usage per processor = 8.23347 Mbytes
Step Temp E_pair E_mol TotEng Press 
      57            0   -4566.7653   -244.88983   -4811.6552   -20.446011 
      58            0   -4566.7653   -244.88983   -4811.6552   -20.446011 
Loop time of 0.0426111 on 1 procs for 1 steps with 4299 atoms
13 atoms in group beginOfchain
System init for delete_bonds ...
Deleting bonds ...
  1648 total bonds, 1648 turned on, 0 turned off
  1442 total angles, 1442 turned on, 0 turned off
  1236 total dihedrals, 1236 turned on, 0 turned off
  0 total impropers, 0 turned on, 0 turned off
Setting up run ...
Memory usage per processor = 8.23347 Mbytes
Step Temp E_pair E_mol TotEng Press 
      58            0   -4566.7653   -244.89424   -4811.6596    -20.46812 
      59            0   -4566.7653   -244.89424   -4811.6596    -20.46812 
Loop time of 0.0423059 on 1 procs for 1 steps with 4299 atoms
5 atoms in group restOfchain
System init for delete_bonds ...
Deleting bonds ...
  1648 total bonds, 1643 turned on, 5 turned off
  1442 total angles, 1437 turned on, 5 turned off
  1236 total dihedrals, 1231 turned on, 5 turned off
  0 total impropers, 0 turned on, 0 turned off
Setting up run ...
Memory usage per processor = 8.23347 Mbytes
Step Temp E_pair E_mol TotEng Press 
      59            0   -4566.7653    -244.8968   -4811.6621   -20.359182 
      60            0   -4566.7653    -244.8968   -4811.6621   -20.359182 
Loop time of 0.041893 on 1 procs for 1 steps with 4299 atoms
9 atoms in group beginOfchain
4 atoms in group restOfchain
System init for delete_bonds ...
Deleting bonds ...
  1648 total bonds, 1644 turned on, 4 turned off
  1442 total angles, 1438 turned on, 4 turned off
  1236 total dihedrals, 1232 turned on, 4 turned off
  0 total impropers, 0 turned on, 0 turned off
Setting up run ...
Memory usage per processor = 8.23347 Mbytes
Step Temp E_pair E_mol TotEng Press 
      60            0   -4566.9373   -241.49417   -4808.4315    -20.23003 
      61            0   -4566.9373   -241.49417   -4808.4315    -20.23003 
Loop time of 0.041878 on 1 procs for 1 steps with 4299 atoms
Setting up run ...
Memory usage per processor = 8.23347 Mbytes
Step Temp E_pair E_mol TotEng Press 
      61            0   -4567.1722   -189.88364   -4757.0558   -19.626405 
      62            0   -4567.1722   -189.88364   -4757.0558   -19.626405 
Loop time of 0.0417771 on 1 procs for 1 steps with 4299 atoms
Setting up run ...
Memory usage per processor = 8.23347 Mbytes
Step Temp E_pair E_mol TotEng Press 
      62            0   -4568.0181    131.25395   -4436.7642   -18.149136 
      63            0   -4568.0181    131.25395   -4436.7642   -18.149136 
Loop time of 0.042192 on 1 procs for 1 steps with 4299 atoms
Setting up run ...
Memory usage per processor = 8.23347 Mbytes
Step Temp E_pair E_mol TotEng Press 
      63            0   -4568.2971    398.53124   -4169.7659    -17.49952 
      64            0   -4568.2971    398.53124   -4169.7659    -17.49952 
Loop time of 0.0456851 on 1 procs for 1 steps with 4299 atoms
Setting up run ...
Memory usage per processor = 8.23347 Mbytes
Step Temp E_pair E_mol TotEng Press 
      64            0   -4568.0822    722.89815   -3845.1841   -17.008829 
      65            0   -4568.0822    722.89815   -3845.1841   -17.008829 
Loop time of 0.0418589 on 1 procs for 1 steps with 4299 atoms
Setting up run ...
Memory usage per processor = 8.23347 Mbytes
Step Temp E_pair E_mol TotEng Press 
      65            0   -4566.9373   -241.49417   -4808.4315    -20.23003 
      66            0   -4566.9373   -241.49417   -4808.4315    -20.23003 
Loop time of 0.041857 on 1 procs for 1 steps with 4299 atoms
10 atoms in group beginOfchain
3 atoms in group restOfchain
System init for delete_bonds ...
Deleting bonds ...
  1648 total bonds, 1645 turned on, 3 turned off
  1442 total angles, 1439 turned on, 3 turned off
  1236 total dihedrals, 1233 turned on, 3 turned off
  0 total impropers, 0 turned on, 0 turned off
Setting up run ...
Memory usage per processor = 8.23347 Mbytes
Step Temp E_pair E_mol TotEng Press 
      66            0   -4568.0519      -166.73   -4734.7819   -21.248169 
      67            0   -4568.0519      -166.73   -4734.7819   -21.248169 
Loop time of 0.0420351 on 1 procs for 1 steps with 4299 atoms
Setting up run ...
Memory usage per processor = 8.23347 Mbytes
Step Temp E_pair E_mol TotEng Press 
      67            0    -4567.393   -224.79523   -4792.1882   -20.510674 
      68            0    -4567.393   -224.79523   -4792.1882   -20.510674 
Loop time of 0.0421391 on 1 procs for 1 steps with 4299 atoms
Setting up run ...
Memory usage per processor = 8.23347 Mbytes
Step Temp E_pair E_mol TotEng Press 
      68            0   -4567.2799   -231.32577   -4798.6057   -20.452726 
      69            0   -4567.2799   -231.32577   -4798.6057   -20.452726 
Loop time of 0.042428 on 1 procs for 1 steps with 4299 atoms
Setting up run ...
Memory usage per processor = 8.23347 Mbytes
Step Temp E_pair E_mol TotEng Press 
      69            0   -4566.8248   -230.63459   -4797.4594   -20.484553 
      70            0   -4566.8248   -230.63459   -4797.4594   -20.484553 
Loop time of 0.0419841 on 1 procs for 1 steps with 4299 atoms
Setting up run ...
Memory usage per processor = 8.23347 Mbytes
Step Temp E_pair E_mol TotEng Press 
      70            0    -4566.892   -239.67361   -4806.5656   -20.369385 
      71            0    -4566.892   -239.67361   -4806.5656   -20.369385 
Loop time of 0.042037 on 1 procs for 1 steps with 4299 atoms
Setting up run ...
Memory usage per processor = 8.23347 Mbytes
Step Temp E_pair E_mol TotEng Press 
      71            0    -4566.892   -239.67361   -4806.5656   -20.369385 
      72            0    -4566.892   -239.67361   -4806.5656   -20.369385 
Loop time of 0.042006 on 1 procs for 1 steps with 4299 atoms
11 atoms in group beginOfchain
2 atoms in group restOfchain
System init for delete_bonds ...
Deleting bonds ...
  1648 total bonds, 1646 turned on, 2 turned off
  1442 total angles, 1440 turned on, 2 turned off
  1236 total dihedrals, 1234 turned on, 2 turned off
  0 total impropers, 0 turned on, 0 turned off
Setting up run ...
Memory usage per processor = 8.23347 Mbytes
Step Temp E_pair E_mol TotEng Press 
      72            0   -4566.8968   -234.12389   -4801.0207   -20.211716 
      73            0   -4566.8968   -234.12389   -4801.0207   -20.211716 
Loop time of 0.041991 on 1 procs for 1 steps with 4299 atoms
Setting up run ...
Memory usage per processor = 8.23347 Mbytes
Step Temp E_pair E_mol TotEng Press 
      73            0   -4566.9026   -233.47415   -4800.3768   -20.197868 
      74            0   -4566.9026   -233.47415   -4800.3768   -20.197868 
Loop time of 0.042073 on 1 procs for 1 steps with 4299 atoms
Setting up run ...
Memory usage per processor = 8.23347 Mbytes
Step Temp E_pair E_mol TotEng Press 
      74            0   -4567.0356   -70.188997   -4637.2246   -18.943361 
      75            0   -4567.0356   -70.188997   -4637.2246   -18.943361 
Loop time of 0.0419729 on 1 procs for 1 steps with 4299 atoms
Setting up run ...
Memory usage per processor = 8.23347 Mbytes
Step Temp E_pair E_mol TotEng Press 
      75            0   -4567.0334   -55.137233   -4622.1706   -18.871589 
      76            0   -4567.0334   -55.137233   -4622.1706   -18.871589 
Loop time of 0.04198 on 1 procs for 1 steps with 4299 atoms
Setting up run ...
Memory usage per processor = 8.23347 Mbytes
Step Temp E_pair E_mol TotEng Press 
      76            0   -4567.1011    280.07774   -4287.0234   -17.807142 
      77            0   -4567.1011    280.07774   -4287.0234   -17.807142 
Loop time of 0.0417609 on 1 procs for 1 steps with 4299 atoms
Setting up run ...
Memory usage per processor = 8.23347 Mbytes
Step Temp E_pair E_mol TotEng Press 
      77            0   -4566.9026   -233.47415   -4800.3768   -20.197868 
      78            0   -4566.9026   -233.47415   -4800.3768   -20.197868 
Loop time of 0.0418789 on 1 procs for 1 steps with 4299 atoms
12 atoms in group beginOfchain
1 atoms in group restOfchain
System init for delete_bonds ...
Deleting bonds ...
  1648 total bonds, 1647 turned on, 1 turned off
  1442 total angles, 1441 turned on, 1 turned off
  1236 total dihedrals, 1235 turned on, 1 turned off
  0 total impropers, 0 turned on, 0 turned off
Setting up run ...
Memory usage per processor = 8.23347 Mbytes
Step Temp E_pair E_mol TotEng Press 
      78            0   -4567.0598   -194.44403   -4761.5038    -19.57549 
      79            0   -4567.0598   -194.44403   -4761.5038    -19.57549 
Loop time of 0.04211 on 1 procs for 1 steps with 4299 atoms
Setting up run ...
Memory usage per processor = 8.23347 Mbytes
Step Temp E_pair E_mol TotEng Press 
      79            0   -4567.0659   -13.446898   -4580.5128   -18.495497 
      80            0   -4567.0659   -13.446898   -4580.5128   -18.495497 
Loop time of 0.041887 on 1 procs for 1 steps with 4299 atoms
Setting up run ...
Memory usage per processor = 8.23347 Mbytes
Step Temp E_pair E_mol TotEng Press 
      80            0   -4567.0659   -13.442129    -4580.508   -18.495431 
      81            0   -4567.0659   -13.442129    -4580.508   -18.495431 
Loop time of 0.0421209 on 1 procs for 1 steps with 4299 atoms
Setting up run ...
Memory usage per processor = 8.23347 Mbytes
Step Temp E_pair E_mol TotEng Press 
      81            0    -4567.069    3.3331652   -4563.7358   -18.433452 
      82            0    -4567.069    3.3331652   -4563.7358   -18.433452 
Loop time of 0.0421119 on 1 procs for 1 steps with 4299 atoms
Setting up run ...
Memory usage per processor = 8.23347 Mbytes
Step Temp E_pair E_mol TotEng Press 
      82            0    -4567.077   -55.028069   -4622.1051   -18.693221 
      83            0    -4567.077   -55.028069   -4622.1051   -18.693221 
Loop time of 0.0419471 on 1 procs for 1 steps with 4299 atoms
Setting up run ...
Memory usage per processor = 8.23347 Mbytes
Step Temp E_pair E_mol TotEng Press 
      83            0   -4567.0598   -194.44403   -4761.5038    -19.57549 
      84            0   -4567.0598   -194.44403   -4761.5038    -19.57549 
Loop time of 0.0427151 on 1 procs for 1 steps with 4299 atoms
13 atoms in group beginOfchain
System init for delete_bonds ...
Deleting bonds ...
  1648 total bonds, 1648 turned on, 0 turned off
  1442 total angles, 1442 turned on, 0 turned off
  1236 total dihedrals, 1236 turned on, 0 turned off
  0 total impropers, 0 turned on, 0 turned off
Setting up run ...
Memory usage per processor = 8.23347 Mbytes
Step Temp E_pair E_mol TotEng Press 
      84            0   -4548.1498   -192.43344   -4740.5832   -19.164413 
      85            0   -4548.1498   -192.43344   -4740.5832   -19.164413 
Loop time of 0.0419779 on 1 procs for 1 steps with 4299 atoms
Setting up run ...
Memory usage per processor = 8.23347 Mbytes
Step Temp E_pair E_mol TotEng Press 
      85            0   -4563.0983   -152.63107   -4715.7294   -18.836477 
      86            0   -4563.0983   -152.63107   -4715.7294   -18.836477 
Loop time of 0.042161 on 1 procs for 1 steps with 4299 atoms
Setting up run ...
Memory usage per processor = 8.23347 Mbytes
Step Temp E_pair E_mol TotEng Press 
      86            0   -4560.4293   -109.37781   -4669.8071   -18.456273 
      87            0   -4560.4293   -109.37781   -4669.8071   -18.456273 
Loop time of 0.041867 on 1 procs for 1 steps with 4299 atoms
Setting up run ...
Memory usage per processor = 8.23347 Mbytes
Step Temp E_pair E_mol TotEng Press 
      87            0   -4559.0228   -77.724056   -4636.7469   -18.232594 
      88            0   -4559.0228   -77.724056   -4636.7469   -18.232594 
Loop time of 0.0422258 on 1 procs for 1 steps with 4299 atoms
Setting up run ...
Memory usage per processor = 8.23347 Mbytes
Step Temp E_pair E_mol TotEng Press 
      88            0   -4566.5179    40.597674   -4525.9203   -17.813636 
      89            0   -4566.5179    40.597674   -4525.9203   -17.813636 
Loop time of 0.042012 on 1 procs for 1 steps with 4299 atoms
Setting up run ...
Memory usage per processor = 8.23347 Mbytes
Step Temp E_pair E_mol TotEng Press 
      89            0   -4548.1498   -192.43344   -4740.5832   -19.164413 
      90            0   -4548.1498   -192.43344   -4740.5832   -19.164413 
Loop time of 0.0419841 on 1 procs for 1 steps with 4299 atoms
Step Temp E_pair E_mol TotEng Press 
      90            0   -4548.1498   -192.43344   -4740.5832   -19.164413 
      91            0   -4504.5472   -244.89424   -4749.4415   -20.217088 
Loop time of 0.0421169 on 1 procs for 1 steps with 4299 atoms
2 atoms in group restOfchain
System init for delete_bonds ...
Deleting bonds ...
  1648 total bonds, 1646 turned on, 2 turned off
  1442 total angles, 1440 turned on, 2 turned off
  1236 total dihedrals, 1234 turned on, 2 turned off
  0 total impropers, 0 turned on, 0 turned off
Setting up run ...
Memory usage per processor = 8.23347 Mbytes
Step Temp E_pair E_mol TotEng Press 
      91            0   -4568.1345   -243.20542   -4811.3399   -20.475298 
      92            0   -4568.1345   -243.20542   -4811.3399   -20.475298 
Loop time of 0.041959 on 1 procs for 1 steps with 4299 atoms
4 atoms in group beginOfchain
1 atoms in group restOfchain
System init for delete_bonds ...
Deleting bonds ...
  1648 total bonds, 1647 turned on, 1 turned off
  1442 total angles, 1441 turned on, 1 turned off
  1236 total dihedrals, 1235 turned on, 1 turned off
  0 total impropers, 0 turned on, 0 turned off
Setting up run ...
Memory usage per processor = 8.23347 Mbytes
Step Temp E_pair E_mol TotEng Press 
      92            0   -4568.1345   -242.99228   -4811.1268   -20.481789 
      93            0   -4568.1345   -242.99228   -4811.1268   -20.481789 
Loop time of 0.0420001 on 1 procs for 1 steps with 4299 atoms
5 atoms in group beginOfchain
System init for delete_bonds ...
Deleting bonds ...
  1648 total bonds, 1648 turned on, 0 turned off
  1442 total angles, 1442 turned on, 0 turned off
  1236 total dihedrals, 1236 turned on, 0 turned off
  0 total impropers, 0 turned on, 0 turned off
Setting up run ...
Memory usage per processor = 8.23347 Mbytes
Step Temp E_pair E_mol TotEng Press 
      93            0   -4568.1345   -244.89424   -4813.0288   -20.492457 
      94            0   -4568.1345   -244.89424   -4813.0288   -20.492457 
Loop time of 0.042202 on 1 procs for 1 steps with 4299 atoms
2 atoms in group restOfchain
System init for delete_bonds ...
Deleting bonds ...
  1648 total bonds, 1646 turned on, 2 turned off
  1442 total angles, 1440 turned on, 2 turned off
  1236 total dihedrals, 1234 turned on, 2 turned off
  0 total impropers, 0 turned on, 0 turned off
Setting up run ...
Memory usage per processor = 8.23347 Mbytes
Step Temp E_pair E_mol TotEng Press 
      94            0   -4568.1345   -243.20542   -4811.3399   -20.475298 
      95            0   -4568.1345   -243.20542   -4811.3399   -20.475298 
Loop time of 0.0420971 on 1 procs for 1 steps with 4299 atoms
4 atoms in group beginOfchain
1 atoms in group restOfchain
System init for delete_bonds ...
Deleting bonds ...
  1648 total bonds, 1647 turned on, 1 turned off
  1442 total angles, 1441 turned on, 1 turned off
  1236 total dihedrals, 1235 turned on, 1 turned off
  0 total impropers, 0 turned on, 0 turned off
Setting up run ...
Memory usage per processor = 8.23347 Mbytes
Step Temp E_pair E_mol TotEng Press 
      95            0   -4566.8554   -243.01004   -4809.8654   -20.457237 
      96            0   -4566.8554   -243.01004   -4809.8654   -20.457237 
Loop time of 0.0421391 on 1 procs for 1 steps with 4299 atoms
Setting up run ...
Memory usage per processor = 8.23347 Mbytes
Step Temp E_pair E_mol TotEng Press 
      96            0   -4566.9525    -109.5559   -4676.5084   -18.999545 
      97            0   -4566.9525    -109.5559   -4676.5084   -18.999545 
Loop time of 0.0420051 on 1 procs for 1 steps with 4299 atoms
Setting up run ...
Memory usage per processor = 8.23347 Mbytes
Step Temp E_pair E_mol TotEng Press 
      97            0   -4566.9022    285.33236   -4281.5698   -17.373053 
      98            0   -4566.9022    285.33236   -4281.5698   -17.373053 
Loop time of 0.0419102 on 1 procs for 1 steps with 4299 atoms
Setting up run ...
Memory usage per processor = 8.23347 Mbytes
Step Temp E_pair E_mol TotEng Press 
      98            0   -4566.9115    372.86102   -4194.0505   -17.136841 
      99            0   -4566.9115    372.86102   -4194.0505   -17.136841 
Loop time of 0.0420489 on 1 procs for 1 steps with 4299 atoms
Setting up run ...
Memory usage per processor = 8.23347 Mbytes
Step Temp E_pair E_mol TotEng Press 
      99            0   -4566.9848    273.81268   -4293.1721   -17.406744 
     100            0   -4566.9848    273.81268   -4293.1721   -17.406744 
Loop time of 0.041986 on 1 procs for 1 steps with 4299 atoms
Setting up run ...
Memory usage per processor = 8.23347 Mbytes
Step Temp E_pair E_mol TotEng Press 
     100            0   -4566.8554   -243.01004   -4809.8654   -20.457237 
     101            0   -4566.8554   -243.01004   -4809.8654   -20.457237 
Loop time of 0.0420158 on 1 procs for 1 steps with 4299 atoms
5 atoms in group beginOfchain
System init for delete_bonds ...
Deleting bonds ...
  1648 total bonds, 1648 turned on, 0 turned off
  1442 total angles, 1442 turned on, 0 turned off
  1236 total dihedrals, 1236 turned on, 0 turned off
  0 total impropers, 0 turned on, 0 turned off
Setting up run ...
Memory usage per processor = 8.23347 Mbytes
Step Temp E_pair E_mol TotEng Press 
     101            0   -4566.8554   -239.92226   -4806.7776    -20.30163 
     102            0   -4566.8554   -239.92226   -4806.7776    -20.30163 
Loop time of 0.041976 on 1 procs for 1 steps with 4299 atoms
Setting up run ...
Memory usage per processor = 8.23347 Mbytes
Step Temp E_pair E_mol TotEng Press 
     102            0   -4566.8554   -231.29272   -4798.1481   -20.183148 
     103            0   -4566.8554   -231.29272   -4798.1481   -20.183148 
Loop time of 0.0419002 on 1 procs for 1 steps with 4299 atoms
Setting up run ...
Memory usage per processor = 8.23347 Mbytes
Step Temp E_pair E_mol TotEng Press 
     103            0   -4566.8554   -174.75744   -4741.6128   -19.768614 
     104            0   -4566.8554   -174.75744   -4741.6128   -19.768614 
Loop time of 0.042227 on 1 procs for 1 steps with 4299 atoms
Setting up run ...
Memory usage per processor = 8.23347 Mbytes
Step Temp E_pair E_mol TotEng Press 
     104            0   -4566.8554   -171.73759    -4738.593   -19.753706 
     105            0   -4566.8554   -171.73759    -4738.593   -19.753706 
Loop time of 0.042064 on 1 procs for 1 steps with 4299 atoms
Setting up run ...
Memory usage per processor = 8.23347 Mbytes
Step Temp E_pair E_mol TotEng Press 
     105            0   -4566.8554   -130.62744   -4697.4828   -19.561733 
     106            0   -4566.8554   -130.62744   -4697.4828   -19.561733 
Loop time of 0.0419779 on 1 procs for 1 steps with 4299 atoms
Setting up run ...
Memory usage per processor = 8.23347 Mbytes
Step Temp E_pair E_mol TotEng Press 
     106            0   -4566.8554   -239.92226   -4806.7776    -20.30163 
     107            0   -4566.8554   -239.92226   -4806.7776    -20.30163 
Loop time of 0.0418949 on 1 procs for 1 steps with 4299 atoms
Step Temp E_pair E_mol TotEng Press 
     107            0   -4566.8554   -239.92226   -4806.7776    -20.30163 
     108            0   -4536.3128   -244.89424    -4781.207   -20.278316 
Loop time of 0.0420761 on 1 procs for 1 steps with 4299 atoms
Step Temp E_pair E_mol TotEng Press 
     108            0   -4536.3128   -244.89424    -4781.207   -20.278316 
     109            0   -4566.8526   -244.89424   -4811.7468   -20.474066 
Loop time of 0.042181 on 1 procs for 1 steps with 4299 atoms
Step Temp E_pair E_mol TotEng Press 
     109            0   -4566.8526   -244.89424   -4811.7468   -20.474066 
     110            0   -4567.0647   -244.89424   -4811.9589   -20.475769 
Loop time of 0.0424299 on 1 procs for 1 steps with 4299 atoms
Step Temp E_pair E_mol TotEng Press 
     110            0   -4567.0647   -244.89424   -4811.9589   -20.475769 
     111            0   -4567.1498   -244.89424   -4812.0441   -20.476431 
Loop time of 0.111757 on 1 procs for 1 steps with 4299 atoms
Step Temp E_pair E_mol TotEng Press 
     111            0   -4567.1498   -244.89424   -4812.0441   -20.476431 
     112            0    -4495.446   -244.89424   -4740.3403   -20.129159 
Loop time of 0.042129 on 1 procs for 1 steps with 4299 atoms
11 atoms in group restOfchain
System init for delete_bonds ...
Deleting bonds ...
  1648 total bonds, 1637 turned on, 11 turned off
  1442 total angles, 1431 turned on, 11 turned off
  1236 total dihedrals, 1226 turned on, 10 turned off
  0 total impropers, 0 turned on, 0 turned off
Setting up run ...
Memory usage per processor = 8.23347 Mbytes
Step Temp E_pair E_mol TotEng Press 
     112            0   -4567.0905    -244.1257   -4811.2162   -20.280237 
     113            0   -4567.0905    -244.1257   -4811.2162   -20.280237 
Loop time of 0.0420921 on 1 procs for 1 steps with 4299 atoms
3 atoms in group beginOfchain
10 atoms in group restOfchain
System init for delete_bonds ...
Deleting bonds ...
  1648 total bonds, 1638 turned on, 10 turned off
  1442 total angles, 1432 turned on, 10 turned off
  1236 total dihedrals, 1226 turned on, 10 turned off
  0 total impropers, 0 turned on, 0 turned off
Setting up run ...
Memory usage per processor = 8.23347 Mbytes
Step Temp E_pair E_mol TotEng Press 
     113            0   -4567.0905   -243.96904   -4811.0595   -20.276377 
     114            0   -4567.0905   -243.96904   -4811.0595   -20.276377 
Loop time of 0.0419009 on 1 procs for 1 steps with 4299 atoms
4 atoms in group beginOfchain
9 atoms in group restOfchain
System init for delete_bonds ...
Deleting bonds ...
  1648 total bonds, 1639 turned on, 9 turned off
  1442 total angles, 1433 turned on, 9 turned off
  1236 total dihedrals, 1227 turned on, 9 turned off
  0 total impropers, 0 turned on, 0 turned off
Setting up run ...
Memory usage per processor = 8.23347 Mbytes
Step Temp E_pair E_mol TotEng Press 
     114            0   -4567.0905   -244.94444   -4812.0349   -20.277532 
     115            0   -4567.0905   -244.94444   -4812.0349   -20.277532 
Loop time of 0.0417941 on 1 procs for 1 steps with 4299 atoms
5 atoms in group beginOfchain
8 atoms in group restOfchain
System init for delete_bonds ...
Deleting bonds ...
  1648 total bonds, 1640 turned on, 8 turned off
  1442 total angles, 1434 turned on, 8 turned off
  1236 total dihedrals, 1228 turned on, 8 turned off
  0 total impropers, 0 turned on, 0 turned off
Setting up run ...
Memory usage per processor = 8.23347 Mbytes
Step Temp E_pair E_mol TotEng Press 
     115            0   -4567.0905   -244.93207   -4812.0226   -20.299775 
     116            0   -4567.0905   -244.93207   -4812.0226   -20.299775 
Loop time of 0.042583 on 1 procs for 1 steps with 4299 atoms
6 atoms in group beginOfchain
7 atoms in group restOfchain
System init for delete_bonds ...
Deleting bonds ...
  1648 total bonds, 1641 turned on, 7 turned off
  1442 total angles, 1435 turned on, 7 turned off
  1236 total dihedrals, 1229 turned on, 7 turned off
  0 total impropers, 0 turned on, 0 turned off
Setting up run ...
Memory usage per processor = 8.23347 Mbytes
Step Temp E_pair E_mol TotEng Press 
     116            0   -4567.0905    -244.9258   -4812.0163   -20.323111 
     117            0   -4567.0905    -244.9258   -4812.0163   -20.323111 
Loop time of 0.0426819 on 1 procs for 1 steps with 4299 atoms
7 atoms in group beginOfchain
6 atoms in group restOfchain
System init for delete_bonds ...
Deleting bonds ...
  1648 total bonds, 1642 turned on, 6 turned off
  1442 total angles, 1436 turned on, 6 turned off
  1236 total dihedrals, 1230 turned on, 6 turned off
  0 total impropers, 0 turned on, 0 turned off
Setting up run ...
Memory usage per processor = 8.23347 Mbytes
Step Temp E_pair E_mol TotEng Press 
     117            0   -4567.0905   -244.90861   -4811.9991   -20.345422 
     118            0   -4567.0905   -244.90861   -4811.9991   -20.345422 
Loop time of 0.042165 on 1 procs for 1 steps with 4299 atoms
8 atoms in group beginOfchain
5 atoms in group restOfchain
System init for delete_bonds ...
Deleting bonds ...
  1648 total bonds, 1643 turned on, 5 turned off
  1442 total angles, 1437 turned on, 5 turned off
  1236 total dihedrals, 1231 turned on, 5 turned off
  0 total impropers, 0 turned on, 0 turned off
Setting up run ...
Memory usage per processor = 8.23347 Mbytes
Step Temp E_pair E_mol TotEng Press 
     118            0   -4567.0905    -244.8968   -4811.9873   -20.366509 
     119            0   -4567.0905    -244.8968   -4811.9873   -20.366509 
Loop time of 0.0419879 on 1 procs for 1 steps with 4299 atoms
9 atoms in group beginOfchain
4 atoms in group restOfchain
System init for delete_bonds ...
Deleting bonds ...
  1648 total bonds, 1644 turned on, 4 turned off
  1442 total angles, 1438 turned on, 4 turned off
  1236 total dihedrals, 1232 turned on, 4 turned off
  0 total impropers, 0 turned on, 0 turned off
Setting up run ...
Memory usage per processor = 8.23347 Mbytes
Step Temp E_pair E_mol TotEng Press 
     119            0   -4567.0905   -244.89778   -4811.9883   -20.388684 
     120            0   -4567.0905   -244.89778   -4811.9883   -20.388684 
Loop time of 0.041883 on 1 procs for 1 steps with 4299 atoms
10 atoms in group beginOfchain
3 atoms in group restOfchain
System init for delete_bonds ...
Deleting bonds ...
  1648 total bonds, 1645 turned on, 3 turned off
  1442 total angles, 1439 turned on, 3 turned off
  1236 total dihedrals, 1233 turned on, 3 turned off
  0 total impropers, 0 turned on, 0 turned off
Setting up run ...
Memory usage per processor = 8.23347 Mbytes
Step Temp E_pair E_mol TotEng Press 
     120            0   -4567.0905   -244.89401   -4811.9845   -20.411368 
     121            0   -4567.0905   -244.89401   -4811.9845   -20.411368 
Loop time of 0.04195 on 1 procs for 1 steps with 4299 atoms
11 atoms in group beginOfchain
2 atoms in group restOfchain
System init for delete_bonds ...
Deleting bonds ...
  1648 total bonds, 1646 turned on, 2 turned off
  1442 total angles, 1440 turned on, 2 turned off
  1236 total dihedrals, 1234 turned on, 2 turned off
  0 total impropers, 0 turned on, 0 turned off
Setting up run ...
Memory usage per processor = 8.23347 Mbytes
Step Temp E_pair E_mol TotEng Press 
     121            0   -4567.0905   -244.88619   -4811.9767   -20.432252 
     122            0   -4567.0905   -244.88619   -4811.9767   -20.432252 
Loop time of 0.0420282 on 1 procs for 1 steps with 4299 atoms
12 atoms in group beginOfchain
1 atoms in group restOfchain
System init for delete_bonds ...
Deleting bonds ...
  1648 total bonds, 1647 turned on, 1 turned off
  1442 total angles, 1441 turned on, 1 turned off
  1236 total dihedrals, 1235 turned on, 1 turned off
  0 total impropers, 0 turned on, 0 turned off
Setting up run ...
Memory usage per processor = 8.23347 Mbytes
Step Temp E_pair E_mol TotEng Press 
     122            0   -4567.0905   -244.88983   -4811.9803   -20.453338 
     123            0   -4567.0905   -244.88983   -4811.9803   -20.453338 
Loop time of 0.0420299 on 1 procs for 1 steps with 4299 atoms
13 atoms in group beginOfchain
System init for delete_bonds ...
Deleting bonds ...
  1648 total bonds, 1648 turned on, 0 turned off
  1442 total angles, 1442 turned on, 0 turned off
  1236 total dihedrals, 1236 turned on, 0 turned off
  0 total impropers, 0 turned on, 0 turned off
Setting up run ...
Memory usage per processor = 8.23347 Mbytes
Step Temp E_pair E_mol TotEng Press 
     123            0   -4567.0905   -244.89424   -4811.9847   -20.475446 
     124            0   -4567.0905   -244.89424   -4811.9847   -20.475446 
Loop time of 0.0421491 on 1 procs for 1 steps with 4299 atoms
11 atoms in group restOfchain
System init for delete_bonds ...
Deleting bonds ...
  1648 total bonds, 1637 turned on, 11 turned off
  1442 total angles, 1431 turned on, 11 turned off
  1236 total dihedrals, 1226 turned on, 10 turned off
  0 total impropers, 0 turned on, 0 turned off
Setting up run ...
Memory usage per processor = 8.23347 Mbytes
Step Temp E_pair E_mol TotEng Press 
     124            0   -4567.0905    -244.1257   -4811.2162   -20.280237 
     125            0   -4567.0905    -244.1257   -4811.2162   -20.280237 
Loop time of 0.0418379 on 1 procs for 1 steps with 4299 atoms
3 atoms in group beginOfchain
10 atoms in group restOfchain
System init for delete_bonds ...
Deleting bonds ...
  1648 total bonds, 1638 turned on, 10 turned off
  1442 total angles, 1432 turned on, 10 turned off
  1236 total dihedrals, 1226 turned on, 10 turned off
  0 total impropers, 0 turned on, 0 turned off
4 atoms in group beginOfchain
9 atoms in group restOfchain
System init for delete_bonds ...
Deleting bonds ...
  1648 total bonds, 1639 turned on, 9 turned off
  1442 total angles, 1433 turned on, 9 turned off
  1236 total dihedrals, 1227 turned on, 9 turned off
  0 total impropers, 0 turned on, 0 turned off
Setting up run ...
Memory usage per processor = 8.23347 Mbytes
Step Temp E_pair E_mol TotEng Press 
     125            0   -3713.4483   -242.99191   -3956.4402   -5.1838013 
     126            0   -3713.4483   -242.99191   -3956.4402   -5.1838013 
Loop time of 0.0421939 on 1 procs for 1 steps with 4299 atoms
Setting up run ...
Memory usage per processor = 8.23347 Mbytes
Step Temp E_pair E_mol TotEng Press 
     126            0   -91.350618   -171.03385   -262.38447     57.48281 
     127            0   -91.350618   -171.03385   -262.38447     57.48281 
Loop time of 0.0424531 on 1 procs for 1 steps with 4299 atoms
Setting up run ...
Memory usage per processor = 8.23347 Mbytes
Step Temp E_pair E_mol TotEng Press 
     127            0    812360.74   -220.91087    812139.83    14179.066 
     128            0    812360.74   -220.91087    812139.83    14179.066 
Loop time of 0.041853 on 1 procs for 1 steps with 4299 atoms
Setting up run ...
Memory usage per processor = 8.23347 Mbytes
Step Temp E_pair E_mol TotEng Press 
     128            0   -4563.9987   -243.41279   -4807.4115   -20.153299 
     129            0   -4563.9987   -243.41279   -4807.4115   -20.153299 
Loop time of 0.0420511 on 1 procs for 1 steps with 4299 atoms
Setting up run ...
Memory usage per processor = 8.23347 Mbytes
Step Temp E_pair E_mol TotEng Press 
     129            0   -4570.9271   -215.38636   -4786.3135   -19.755663 
     130            0   -4570.9271   -215.38636   -4786.3135   -19.755663 
Loop time of 0.0419228 on 1 procs for 1 steps with 4299 atoms
Setting up run ...
Memory usage per processor = 8.23347 Mbytes
Step Temp E_pair E_mol TotEng Press 
     130            0   -4563.9987   -243.41279   -4807.4115   -20.153299 
     131            0   -4563.9987   -243.41279   -4807.4115   -20.153299 
Loop time of 0.0421281 on 1 procs for 1 steps with 4299 atoms
5 atoms in group beginOfchain
8 atoms in group restOfchain
System init for delete_bonds ...
Deleting bonds ...
  1648 total bonds, 1640 turned on, 8 turned off
  1442 total angles, 1434 turned on, 8 turned off
  1236 total dihedrals, 1228 turned on, 8 turned off
  0 total impropers, 0 turned on, 0 turned off
Setting up run ...
Memory usage per processor = 8.23347 Mbytes
Step Temp E_pair E_mol TotEng Press 
     131            0   -4541.8171   -242.89034   -4784.7074   -19.720379 
     132            0   -4541.8171   -242.89034   -4784.7074   -19.720379 
Loop time of 0.0420079 on 1 procs for 1 steps with 4299 atoms
Setting up run ...
Memory usage per processor = 8.23347 Mbytes
Step Temp E_pair E_mol TotEng Press 
     132            0   -4349.2633   -149.13998   -4498.4032   -15.015829 
     133            0   -4349.2633   -149.13998   -4498.4032   -15.015829 
Loop time of 0.041939 on 1 procs for 1 steps with 4299 atoms
Setting up run ...
Memory usage per processor = 8.23347 Mbytes
Step Temp E_pair E_mol TotEng Press 
     133            0    29454.189   -203.45096    29250.738    574.55978 
     134            0    29454.189   -203.45096    29250.738    574.55978 
Loop time of 0.0418358 on 1 procs for 1 steps with 4299 atoms
Setting up run ...
Memory usage per processor = 8.23347 Mbytes
Step Temp E_pair E_mol TotEng Press 
     134            0    55018.829   -198.80986    54820.019     1019.072 
     135            0    55018.829   -198.80986    54820.019     1019.072 
Loop time of 0.042181 on 1 procs for 1 steps with 4299 atoms
Setting up run ...
Memory usage per processor = 8.23347 Mbytes
Step Temp E_pair E_mol TotEng Press 
     135            0    105730.75   -197.38507    105533.36    1900.4027 
     136            0    105730.75   -197.38507    105533.36    1900.4027 
Loop time of 0.042022 on 1 procs for 1 steps with 4299 atoms
Setting up run ...
Memory usage per processor = 8.23347 Mbytes
Step Temp E_pair E_mol TotEng Press 
     136            0   -4541.8171   -242.89034   -4784.7074   -19.720379 
     137            0   -4541.8171   -242.89034   -4784.7074   -19.720379 
Loop time of 0.042341 on 1 procs for 1 steps with 4299 atoms
6 atoms in group beginOfchain
7 atoms in group restOfchain
System init for delete_bonds ...
Deleting bonds ...
  1648 total bonds, 1641 turned on, 7 turned off
  1442 total angles, 1435 turned on, 7 turned off
  1236 total dihedrals, 1229 turned on, 7 turned off
  0 total impropers, 0 turned on, 0 turned off
Setting up run ...
Memory usage per processor = 8.23347 Mbytes
Step Temp E_pair E_mol TotEng Press 
     137            0   -3663.2987   -226.26587   -3889.5646   -3.7937746 
     138            0   -3663.2987   -226.26587   -3889.5646   -3.7937746 
Loop time of 0.042592 on 1 procs for 1 steps with 4299 atoms
Setting up run ...
Memory usage per processor = 8.23347 Mbytes
Step Temp E_pair E_mol TotEng Press 
     138            0   -4570.1493   -230.30315   -4800.4525    -20.04516 
     139            0   -4570.1493   -230.30315   -4800.4525    -20.04516 
Loop time of 0.0419769 on 1 procs for 1 steps with 4299 atoms
Setting up run ...
Memory usage per processor = 8.23347 Mbytes
Step Temp E_pair E_mol TotEng Press 
     139            0   -4568.0229    -242.8321    -4810.855   -20.300435 
     140            0   -4568.0229    -242.8321    -4810.855   -20.300435 
Loop time of 0.041965 on 1 procs for 1 steps with 4299 atoms
Setting up run ...
Memory usage per processor = 8.23347 Mbytes
Step Temp E_pair E_mol TotEng Press 
     140            0   -4568.5246   -229.29068   -4797.8153   -19.997417 
     141            0   -4568.5246   -229.29068   -4797.8153   -19.997417 
Loop time of 0.0418241 on 1 procs for 1 steps with 4299 atoms
Setting up run ...
Memory usage per processor = 8.23347 Mbytes
Step Temp E_pair E_mol TotEng Press 
     141            0     -4568.46   -227.68808   -4796.1481   -19.970101 
     142            0     -4568.46   -227.68808   -4796.1481   -19.970101 
Loop time of 0.0426731 on 1 procs for 1 steps with 4299 atoms
Setting up run ...
Memory usage per processor = 8.23347 Mbytes
Step Temp E_pair E_mol TotEng Press 
     142            0   -4568.0229    -242.8321    -4810.855   -20.300435 
     143            0   -4568.0229    -242.8321    -4810.855   -20.300435 
Loop time of 0.041965 on 1 procs for 1 steps with 4299 atoms
7 atoms in group beginOfchain
6 atoms in group restOfchain
System init for delete_bonds ...
Deleting bonds ...
  1648 total bonds, 1642 turned on, 6 turned off
  1442 total angles, 1436 turned on, 6 turned off
  1236 total dihedrals, 1230 turned on, 6 turned off
  0 total impropers, 0 turned on, 0 turned off
Setting up run ...
Memory usage per processor = 8.23347 Mbytes
Step Temp E_pair E_mol TotEng Press 
     143            0   -4569.1301   -104.24837   -4673.3785   -19.018452 
     144            0   -4569.1301   -104.24837   -4673.3785   -19.018452 
Loop time of 0.0419559 on 1 procs for 1 steps with 4299 atoms
Setting up run ...
Memory usage per processor = 8.23347 Mbytes
Step Temp E_pair E_mol TotEng Press 
     144            0   -4518.0064    166.70752   -4351.2988   -16.968129 
     145            0   -4518.0064    166.70752   -4351.2988   -16.968129 
Loop time of 0.042227 on 1 procs for 1 steps with 4299 atoms
Setting up run ...
Memory usage per processor = 8.23347 Mbytes
Step Temp E_pair E_mol TotEng Press 
     145            0   -4555.5159    409.90475   -4145.6111   -17.140845 
     146            0   -4555.5159    409.90475   -4145.6111   -17.140845 
Loop time of 0.042098 on 1 procs for 1 steps with 4299 atoms
Setting up run ...
Memory usage per processor = 8.23347 Mbytes
Step Temp E_pair E_mol TotEng Press 
     146            0    -4557.134    415.23786   -4141.8961   -17.165165 
     147            0    -4557.134    415.23786   -4141.8961   -17.165165 
Loop time of 0.042079 on 1 procs for 1 steps with 4299 atoms
Setting up run ...
Memory usage per processor = 8.23347 Mbytes
Step Temp E_pair E_mol TotEng Press 
     147            0    -4568.273    132.99608    -4435.277   -18.087352 
     148            0    -4568.273    132.99608    -4435.277   -18.087352 
Loop time of 0.0418859 on 1 procs for 1 steps with 4299 atoms
Setting up run ...
Memory usage per processor = 8.23347 Mbytes
Step Temp E_pair E_mol TotEng Press 
     148            0   -4569.1301   -104.24837   -4673.3785   -19.018452 
     149            0   -4569.1301   -104.24837   -4673.3785   -19.018452 
Loop time of 0.042068 on 1 procs for 1 steps with 4299 atoms
8 atoms in group beginOfchain
5 atoms in group restOfchain
System init for delete_bonds ...
Deleting bonds ...
  1648 total bonds, 1643 turned on, 5 turned off
  1442 total angles, 1437 turned on, 5 turned off
  1236 total dihedrals, 1231 turned on, 5 turned off
  0 total impropers, 0 turned on, 0 turned off
Setting up run ...
Memory usage per processor = 8.23347 Mbytes
Step Temp E_pair E_mol TotEng Press 
     149            0   -4569.7756   -106.53631   -4676.3119   -18.903309 
     150            0   -4569.7756   -106.53631   -4676.3119   -18.903309 
Loop time of 0.0424011 on 1 procs for 1 steps with 4299 atoms
Setting up run ...
Memory usage per processor = 8.23347 Mbytes
Step Temp E_pair E_mol TotEng Press 
     150            0   -4568.9932     11.69961   -4557.2936   -17.827152 
     151            0   -4568.9932     11.69961   -4557.2936   -17.827152 
Loop time of 0.0420339 on 1 procs for 1 steps with 4299 atoms
Setting up run ...
Memory usage per processor = 8.23347 Mbytes
Step Temp E_pair E_mol TotEng Press 
     151            0   -4569.0193    15.898225   -4553.1211   -17.803555 
     152            0   -4569.0193    15.898225   -4553.1211   -17.803555 
Loop time of 0.0420339 on 1 procs for 1 steps with 4299 atoms
Setting up run ...
Memory usage per processor = 8.23347 Mbytes
Step Temp E_pair E_mol TotEng Press 
     152            0   -4570.5178    200.56057   -4369.9572   -16.992106 
     153            0   -4570.5178    200.56057   -4369.9572   -16.992106 
Loop time of 0.042084 on 1 procs for 1 steps with 4299 atoms
Setting up run ...
Memory usage per processor = 8.23347 Mbytes
Step Temp E_pair E_mol TotEng Press 
     153            0   -4569.9637    402.96228   -4167.0014   -16.420293 
     154            0   -4569.9637    402.96228   -4167.0014   -16.420293 
Loop time of 0.0419171 on 1 procs for 1 steps with 4299 atoms
Setting up run ...
Memory usage per processor = 8.23347 Mbytes
Step Temp E_pair E_mol TotEng Press 
     154            0   -4569.7756   -106.53631   -4676.3119   -18.903309 
     155            0   -4569.7756   -106.53631   -4676.3119   -18.903309 
Loop time of 0.0419509 on 1 procs for 1 steps with 4299 atoms
9 atoms in group beginOfchain
4 atoms in group restOfchain
System init for delete_bonds ...
Deleting bonds ...
  1648 total bonds, 1644 turned on, 4 turned off
  1442 total angles, 1438 turned on, 4 turned off
  1236 total dihedrals, 1232 turned on, 4 turned off
  0 total impropers, 0 turned on, 0 turned off
Setting up run ...
Memory usage per processor = 8.23347 Mbytes
Step Temp E_pair E_mol TotEng Press 
     155            0   -4569.7373    31.416217   -4538.3211   -17.618993 
     156            0   -4569.7373    31.416217   -4538.3211   -17.618993 
Loop time of 0.0418968 on 1 procs for 1 steps with 4299 atoms
Setting up run ...
Memory usage per processor = 8.23347 Mbytes
Step Temp E_pair E_mol TotEng Press 
     156            0   -4569.9617    54.159843   -4515.8019   -17.504802 
     157            0   -4569.9617    54.159843   -4515.8019   -17.504802 
Loop time of 0.0421948 on 1 procs for 1 steps with 4299 atoms
Setting up run ...
Memory usage per processor = 8.23347 Mbytes
Step Temp E_pair E_mol TotEng Press 
     157            0   -4570.8912   -26.266582   -4597.1578   -17.922693 
     158            0   -4570.8912   -26.266582   -4597.1578   -17.922693 
Loop time of 0.0419021 on 1 procs for 1 steps with 4299 atoms
Setting up run ...
Memory usage per processor = 8.23347 Mbytes
Step Temp E_pair E_mol TotEng Press 
     158            0   -4570.9433   -18.772121   -4589.7154    -17.88208 
     159            0   -4570.9433   -18.772121   -4589.7154    -17.88208 
Loop time of 0.0421412 on 1 procs for 1 steps with 4299 atoms
Setting up run ...
Memory usage per processor = 8.23347 Mbytes
Step Temp E_pair E_mol TotEng Press 
     159            0   -4570.5921    136.91414    -4433.678   -17.078334 
     160            0   -4570.5921    136.91414    -4433.678   -17.078334 
Loop time of 0.042068 on 1 procs for 1 steps with 4299 atoms
Setting up run ...
Memory usage per processor = 8.23347 Mbytes
Step Temp E_pair E_mol TotEng Press 
     160            0   -4570.8912   -26.266582   -4597.1578   -17.922693 
     161            0   -4570.8912   -26.266582   -4597.1578   -17.922693 
Loop time of 0.042098 on 1 procs for 1 steps with 4299 atoms
10 atoms in group beginOfchain
3 atoms in group restOfchain
System init for delete_bonds ...
Deleting bonds ...
  1648 total bonds, 1645 turned on, 3 turned off
  1442 total angles, 1439 turned on, 3 turned off
  1236 total dihedrals, 1233 turned on, 3 turned off
  0 total impropers, 0 turned on, 0 turned off
Setting up run ...
Memory usage per processor = 8.23347 Mbytes
Step Temp E_pair E_mol TotEng Press 
     161            0   -4510.3889   -23.452525   -4533.8414   -16.665864 
     162            0   -4510.3889   -23.452525   -4533.8414   -16.665864 
Loop time of 0.0419612 on 1 procs for 1 steps with 4299 atoms
Setting up run ...
Memory usage per processor = 8.23347 Mbytes
Step Temp E_pair E_mol TotEng Press 
     162            0   -4492.2863   -21.944055   -4514.2304   -16.307576 
     163            0   -4492.2863   -21.944055   -4514.2304   -16.307576 
Loop time of 0.042227 on 1 procs for 1 steps with 4299 atoms
Setting up run ...
Memory usage per processor = 8.23347 Mbytes
Step Temp E_pair E_mol TotEng Press 
     163            0   -4552.4351    36.101706   -4516.3334   -16.699974 
     164            0   -4552.4351    36.101706   -4516.3334   -16.699974 
Loop time of 0.0418272 on 1 procs for 1 steps with 4299 atoms
Setting up run ...
Memory usage per processor = 8.23347 Mbytes
Step Temp E_pair E_mol TotEng Press 
     164            0   -4540.6597    133.28127   -4407.3785   -15.897709 
     165            0   -4540.6597    133.28127   -4407.3785   -15.897709 
Loop time of 0.042218 on 1 procs for 1 steps with 4299 atoms
Setting up run ...
Memory usage per processor = 8.23347 Mbytes
Step Temp E_pair E_mol TotEng Press 
     165            0   -4570.1628     262.5438    -4307.619   -15.961723 
     166            0   -4570.1628     262.5438    -4307.619   -15.961723 
Loop time of 0.042331 on 1 procs for 1 steps with 4299 atoms
Setting up run ...
Memory usage per processor = 8.23347 Mbytes
Step Temp E_pair E_mol TotEng Press 
     166            0   -4510.3889   -23.452525   -4533.8414   -16.665864 
     167            0   -4510.3889   -23.452525   -4533.8414   -16.665864 
Loop time of 0.042546 on 1 procs for 1 steps with 4299 atoms
11 atoms in group beginOfchain
2 atoms in group restOfchain
System init for delete_bonds ...
Deleting bonds ...
  1648 total bonds, 1646 turned on, 2 turned off
  1442 total angles, 1440 turned on, 2 turned off
  1236 total dihedrals, 1234 turned on, 2 turned off
  0 total impropers, 0 turned on, 0 turned off
Setting up run ...
Memory usage per processor = 8.23347 Mbytes
Step Temp E_pair E_mol TotEng Press 
     167            0   -4515.8615    217.94698   -4297.9145   -15.043887 
     168            0   -4515.8615    217.94698   -4297.9145   -15.043887 
Loop time of 0.042176 on 1 procs for 1 steps with 4299 atoms
Setting up run ...
Memory usage per processor = 8.23347 Mbytes
Step Temp E_pair E_mol TotEng Press 
     168            0   -4506.9677    632.19783   -3874.7699   -13.775557 
     169            0   -4506.9677    632.19783   -3874.7699   -13.775557 
Loop time of 0.0422449 on 1 procs for 1 steps with 4299 atoms
Setting up run ...
Memory usage per processor = 8.23347 Mbytes
Step Temp E_pair E_mol TotEng Press 
     169            0   -4505.0724    643.85656   -3861.2158   -13.714058 
     170            0   -4505.0724    643.85656   -3861.2158   -13.714058 
Loop time of 0.0421391 on 1 procs for 1 steps with 4299 atoms
Setting up run ...
Memory usage per processor = 8.23347 Mbytes
Step Temp E_pair E_mol TotEng Press 
     170            0   -4509.4064    955.27329   -3554.1331   -13.377866 
     171            0   -4509.4064    955.27329   -3554.1331   -13.377866 
Loop time of 0.0423071 on 1 procs for 1 steps with 4299 atoms
Setting up run ...
Memory usage per processor = 8.23347 Mbytes
Step Temp E_pair E_mol TotEng Press 
     171            0   -4502.2235    1115.0621   -3387.1613   -13.076928 
     172            0   -4502.2235    1115.0621   -3387.1613   -13.076928 
Loop time of 0.042155 on 1 procs for 1 steps with 4299 atoms
Setting up run ...
Memory usage per processor = 8.23347 Mbytes
Step Temp E_pair E_mol TotEng Press 
     172            0   -4515.8615    217.94698   -4297.9145   -15.043887 
     173            0   -4515.8615    217.94698   -4297.9145   -15.043887 
Loop time of 0.0421801 on 1 procs for 1 steps with 4299 atoms
12 atoms in group beginOfchain
1 atoms in group restOfchain
System init for delete_bonds ...
Deleting bonds ...
  1648 total bonds, 1647 turned on, 1 turned off
  1442 total angles, 1441 turned on, 1 turned off
  1236 total dihedrals, 1235 turned on, 1 turned off
  0 total impropers, 0 turned on, 0 turned off
Setting up run ...
Memory usage per processor = 8.23347 Mbytes
Step Temp E_pair E_mol TotEng Press 
     173            0   -4516.0594    215.58737    -4300.472   -14.925169 
     174            0   -4516.0594    215.58737    -4300.472   -14.925169 
Loop time of 0.0421741 on 1 procs for 1 steps with 4299 atoms
Setting up run ...
Memory usage per processor = 8.23347 Mbytes
Step Temp E_pair E_mol TotEng Press 
     174            0   -4516.1239     216.7601   -4299.3638   -14.899204 
     175            0   -4516.1239     216.7601   -4299.3638   -14.899204 
Loop time of 0.0420721 on 1 procs for 1 steps with 4299 atoms
Setting up run ...
Memory usage per processor = 8.23347 Mbytes
Step Temp E_pair E_mol TotEng Press 
     175            0   -4514.2822     225.4343   -4288.8479   -15.170632 
     176            0   -4514.2822     225.4343   -4288.8479   -15.170632 
Loop time of 0.0422552 on 1 procs for 1 steps with 4299 atoms
Setting up run ...
Memory usage per processor = 8.23347 Mbytes
Step Temp E_pair E_mol TotEng Press 
     176            0   -4515.3743    299.62071   -4215.7535   -16.200631 
     177            0   -4515.3743    299.62071   -4215.7535   -16.200631 
Loop time of 0.04214 on 1 procs for 1 steps with 4299 atoms
Setting up run ...
Memory usage per processor = 8.23347 Mbytes
Step Temp E_pair E_mol TotEng Press 
     177            0   -4514.7696    244.04374   -4270.7258   -15.330321 
     178            0   -4514.7696    244.04374   -4270.7258   -15.330321 
Loop time of 0.041925 on 1 procs for 1 steps with 4299 atoms
Setting up run ...
Memory usage per processor = 8.23347 Mbytes
Step Temp E_pair E_mol TotEng Press 
     178            0   -4516.1239     216.7601   -4299.3638   -14.899204 
     179            0   -4516.1239     216.7601   -4299.3638   -14.899204 
Loop time of 0.0421989 on 1 procs for 1 steps with 4299 atoms
13 atoms in group beginOfchain
System init for delete_bonds ...
Deleting bonds ...
  1648 total bonds, 1648 turned on, 0 turned off
  1442 total angles, 1442 turned on, 0 turned off
  1236 total dihedrals, 1236 turned on, 0 turned off
  0 total impropers, 0 turned on, 0 turned off
Setting up run ...
Memory usage per processor = 8.23347 Mbytes
Step Temp E_pair E_mol TotEng Press 
     179            0   -4516.3789    735.61365   -3780.7653   -12.351901 
     180            0   -4516.3789    735.61365   -3780.7653   -12.351901 
Loop time of 0.041852 on 1 procs for 1 steps with 4299 atoms
Setting up run ...
Memory usage per processor = 8.23347 Mbytes
Step Temp E_pair E_mol TotEng Press 
     180            0   -4516.4654    999.24035    -3517.225   -11.868451 
     181            0   -4516.4654    999.24035    -3517.225   -11.868451 
Loop time of 0.0419891 on 1 procs for 1 steps with 4299 atoms
Setting up run ...
Memory usage per processor = 8.23347 Mbytes
Step Temp E_pair E_mol TotEng Press 
     181            0   -4516.4025    1291.6723   -3224.7302   -11.529571 
     182            0   -4516.4025    1291.6723   -3224.7302   -11.529571 
Loop time of 0.0421028 on 1 procs for 1 steps with 4299 atoms
Setting up run ...
Memory usage per processor = 8.23347 Mbytes
Step Temp E_pair E_mol TotEng Press 
     182            0   -4516.3954    1304.2991   -3212.0963   -11.516356 
     183            0   -4516.3954    1304.2991   -3212.0963   -11.516356 
Loop time of 0.042382 on 1 procs for 1 steps with 4299 atoms
Setting up run ...
Memory usage per processor = 8.23347 Mbytes
Step Temp E_pair E_mol TotEng Press 
     183            0   -4516.4085    1321.5351   -3194.8734   -11.503056 
     184            0   -4516.4085    1321.5351   -3194.8734   -11.503056 
Loop time of 0.0424361 on 1 procs for 1 steps with 4299 atoms
Setting up run ...
Memory usage per processor = 8.23347 Mbytes
Step Temp E_pair E_mol TotEng Press 
     184            0   -4516.1239    456.95843   -4059.1655   -13.154935 
     185            0   -4516.1239    456.95843   -4059.1655   -13.154935 
Loop time of 0.041955 on 1 procs for 1 steps with 4299 atoms
Step Temp E_pair E_mol TotEng Press 
     185            0   -4516.1239    456.95843   -4059.1655   -13.154935 
     186            0   -4518.9294   -244.89424   -4763.8237   -20.258062 
Loop time of 0.0421162 on 1 procs for 1 steps with 4299 atoms
Step Temp E_pair E_mol TotEng Press 
     186            0   -4518.9294   -244.89424   -4763.8237   -20.258062 
     187            0   -4567.1154   -244.89424   -4812.0097   -20.476149 
Loop time of 0.042424 on 1 procs for 1 steps with 4299 atoms
Step Temp E_pair E_mol TotEng Press 
     187            0   -4567.1154   -244.89424   -4812.0097   -20.476149 
     188            0    -4567.126   -244.89424   -4812.0202   -20.476262 
Loop time of 0.0424991 on 1 procs for 1 steps with 4299 atoms
Step Temp E_pair E_mol TotEng Press 
     188            0    -4567.126   -244.89424   -4812.0202   -20.476262 
     189            0   -4566.7482   -244.89424   -4811.6424   -20.473037 
Loop time of 0.112245 on 1 procs for 1 steps with 4299 atoms
1 atoms in group restOfchain
System init for delete_bonds ...
Deleting bonds ...
  1648 total bonds, 1647 turned on, 1 turned off
  1442 total angles, 1441 turned on, 1 turned off
  1236 total dihedrals, 1235 turned on, 1 turned off
  0 total impropers, 0 turned on, 0 turned off
Setting up run ...
Memory usage per processor = 8.23347 Mbytes
Step Temp E_pair E_mol TotEng Press 
     189            0   -4566.7482   -242.99228   -4809.7404   -20.462369 
     190            0   -4566.7482   -242.99228   -4809.7404   -20.462369 
Loop time of 0.042218 on 1 procs for 1 steps with 4299 atoms
5 atoms in group beginOfchain
System init for delete_bonds ...
Deleting bonds ...
  1648 total bonds, 1648 turned on, 0 turned off
[...]
Loop time of 0.0422149 on 1 procs for 1 steps with 4299 atoms
Setting up run ...
Memory usage per processor = 8.23347 Mbytes
Step Temp E_pair E_mol TotEng Press 
    1756            0   -4477.3786    886.67737   -3590.7012   -8.9056269 
    1757            0   -4477.3786    886.67737   -3590.7012   -8.9056269 
Loop time of 0.0421669 on 1 procs for 1 steps with 4299 atoms
Setting up run ...
Memory usage per processor = 8.23347 Mbytes
Step Temp E_pair E_mol TotEng Press 
    1757            0   -4477.3988    712.21536   -3765.1834   -10.585617 
    1758            0   -4477.3988    712.21536   -3765.1834   -10.585617 
Loop time of 0.0419662 on 1 procs for 1 steps with 4299 atoms
5 atoms in group beginOfchain
System init for delete_bonds ...
Deleting bonds ...
  1648 total bonds, 1648 turned on, 0 turned off
  1442 total angles, 1442 turned on, 0 turned off
  1236 total dihedrals, 1236 turned on, 0 turned off
  0 total impropers, 0 turned on, 0 turned off
Setting up run ...
Memory usage per processor = 8.23347 Mbytes
Step Temp E_pair E_mol TotEng Press 
    1758            0   -4477.3988    718.70367   -3758.6951   -10.732504 
    1759            0   -4477.3988    718.70367   -3758.6951   -10.732504 
Loop time of 0.0421879 on 1 procs for 1 steps with 4299 atoms
Setting up run ...
Memory usage per processor = 8.23347 Mbytes
Step Temp E_pair E_mol TotEng Press 
    1759            0   -4477.3988    716.25521   -3761.1436   -10.710283 
    1760            0   -4477.3988    716.25521   -3761.1436   -10.710283 
Loop time of 0.041955 on 1 procs for 1 steps with 4299 atoms
Setting up run ...
Memory usage per processor = 8.23347 Mbytes
Step Temp E_pair E_mol TotEng Press 
    1760            0   -4477.3988    716.24758   -3761.1512    -10.71024 
    1761            0   -4477.3988    716.24758   -3761.1512    -10.71024 
Loop time of 0.0420339 on 1 procs for 1 steps with 4299 atoms
Setting up run ...
Memory usage per processor = 8.23347 Mbytes
Step Temp E_pair E_mol TotEng Press 
    1761            0    -4477.399    735.48476   -3741.9143   -10.875052 
    1762            0    -4477.399    735.48476   -3741.9143   -10.875052 
Loop time of 0.0429831 on 1 procs for 1 steps with 4299 atoms
Setting up run ...
Memory usage per processor = 8.23347 Mbytes
Step Temp E_pair E_mol TotEng Press 
    1762            0   -4477.3988     712.3268    -3765.072   -10.496425 
    1763            0   -4477.3988     712.3268    -3765.072   -10.496425 
Loop time of 0.04194 on 1 procs for 1 steps with 4299 atoms
Setting up run ...
Memory usage per processor = 8.23347 Mbytes
Step Temp E_pair E_mol TotEng Press 
    1763            0   -4477.3988     712.3268    -3765.072   -10.496425 
    1764            0   -4477.3988     712.3268    -3765.072   -10.496425 
Loop time of 0.04231 on 1 procs for 1 steps with 4299 atoms
Step Temp E_pair E_mol TotEng Press 
    1764            0   -4477.3988     712.3268    -3765.072   -10.496425 
    1765            0   -4438.0606     712.3268   -3725.7338   -10.225484 
Loop time of 0.042062 on 1 procs for 1 steps with 4299 atoms
Step Temp E_pair E_mol TotEng Press 
    1765            0   -4438.0606     712.3268   -3725.7338   -10.225484 
    1766            0   -4477.8903     712.3268   -3765.5635   -10.500584 
Loop time of 0.0421419 on 1 procs for 1 steps with 4299 atoms
Step Temp E_pair E_mol TotEng Press 
    1766            0   -4477.8903     712.3268   -3765.5635   -10.500584 
    1767            0   -4477.3645     712.3268   -3765.0377   -10.496078 
Loop time of 0.0422111 on 1 procs for 1 steps with 4299 atoms
Step Temp E_pair E_mol TotEng Press 
    1767            0   -4477.3645     712.3268   -3765.0377   -10.496078 
    1768            0   -4478.5061     712.3268   -3766.1793   -10.506082 
Loop time of 0.112452 on 1 procs for 1 steps with 4299 atoms
10 atoms in group restOfchain
System init for delete_bonds ...
Deleting bonds ...
  1648 total bonds, 1638 turned on, 10 turned off
  1442 total angles, 1432 turned on, 10 turned off
  1236 total dihedrals, 1226 turned on, 10 turned off
  0 total impropers, 0 turned on, 0 turned off
Setting up run ...
Memory usage per processor = 8.23347 Mbytes
Step Temp E_pair E_mol TotEng Press 
    1768            0   -4478.5061    713.25201   -3765.2541   -10.307013 
    1769            0   -4478.5061    713.25201   -3765.2541   -10.307013 
Loop time of 0.0417688 on 1 procs for 1 steps with 4299 atoms
4 atoms in group beginOfchain
9 atoms in group restOfchain
System init for delete_bonds ...
Deleting bonds ...
  1648 total bonds, 1639 turned on, 9 turned off
  1442 total angles, 1433 turned on, 9 turned off
  1236 total dihedrals, 1227 turned on, 9 turned off
  0 total impropers, 0 turned on, 0 turned off
Setting up run ...
Memory usage per processor = 8.23347 Mbytes
Step Temp E_pair E_mol TotEng Press 
    1769            0   -4478.5061     712.2766   -3766.2295   -10.308168 
    1770            0   -4478.5061     712.2766   -3766.2295   -10.308168 
Loop time of 0.0419428 on 1 procs for 1 steps with 4299 atoms
5 atoms in group beginOfchain
8 atoms in group restOfchain
System init for delete_bonds ...
Deleting bonds ...
  1648 total bonds, 1640 turned on, 8 turned off
  1442 total angles, 1434 turned on, 8 turned off
  1236 total dihedrals, 1228 turned on, 8 turned off
  0 total impropers, 0 turned on, 0 turned off
Setting up run ...
Memory usage per processor = 8.23347 Mbytes
Step Temp E_pair E_mol TotEng Press 
    1770            0   -4478.5061    712.28897   -3766.2171    -10.33041 
    1771            0   -4478.5061    712.28897   -3766.2171    -10.33041 
Loop time of 0.041899 on 1 procs for 1 steps with 4299 atoms
6 atoms in group beginOfchain
7 atoms in group restOfchain
System init for delete_bonds ...
Deleting bonds ...
  1648 total bonds, 1641 turned on, 7 turned off
  1442 total angles, 1435 turned on, 7 turned off
  1236 total dihedrals, 1229 turned on, 7 turned off
  0 total impropers, 0 turned on, 0 turned off
Setting up run ...
Memory usage per processor = 8.23347 Mbytes
Step Temp E_pair E_mol TotEng Press 
    1771            0   -4478.5061    712.29525   -3766.2109   -10.353747 
    1772            0   -4478.5061    712.29525   -3766.2109   -10.353747 
Loop time of 0.0419428 on 1 procs for 1 steps with 4299 atoms
7 atoms in group beginOfchain
6 atoms in group restOfchain
System init for delete_bonds ...
Deleting bonds ...
  1648 total bonds, 1642 turned on, 6 turned off
  1442 total angles, 1436 turned on, 6 turned off
  1236 total dihedrals, 1230 turned on, 6 turned off
  0 total impropers, 0 turned on, 0 turned off
Setting up run ...
Memory usage per processor = 8.23347 Mbytes
Step Temp E_pair E_mol TotEng Press 
    1772            0   -4478.5061    712.31244   -3766.1937   -10.376058 
    1773            0   -4478.5061    712.31244   -3766.1937   -10.376058 
Loop time of 0.0420239 on 1 procs for 1 steps with 4299 atoms
8 atoms in group beginOfchain
5 atoms in group restOfchain
System init for delete_bonds ...
Deleting bonds ...
  1648 total bonds, 1643 turned on, 5 turned off
  1442 total angles, 1437 turned on, 5 turned off
  1236 total dihedrals, 1231 turned on, 5 turned off
  0 total impropers, 0 turned on, 0 turned off
Setting up run ...
Memory usage per processor = 8.23347 Mbytes
Step Temp E_pair E_mol TotEng Press 
    1773            0   -4478.5061    712.32425   -3766.1819   -10.397145 
    1774            0   -4478.5061    712.32425   -3766.1819   -10.397145 
Loop time of 0.0420539 on 1 procs for 1 steps with 4299 atoms
9 atoms in group beginOfchain
4 atoms in group restOfchain
System init for delete_bonds ...
Deleting bonds ...
  1648 total bonds, 1644 turned on, 4 turned off
  1442 total angles, 1438 turned on, 4 turned off
  1236 total dihedrals, 1232 turned on, 4 turned off
  0 total impropers, 0 turned on, 0 turned off
Setting up run ...
Memory usage per processor = 8.23347 Mbytes
Step Temp E_pair E_mol TotEng Press 
    1774            0   -4478.5061    712.32326   -3766.1828   -10.419319 
    1775            0   -4478.5061    712.32326   -3766.1828   -10.419319 
Loop time of 0.04179 on 1 procs for 1 steps with 4299 atoms
10 atoms in group beginOfchain
3 atoms in group restOfchain
System init for delete_bonds ...
Deleting bonds ...
  1648 total bonds, 1645 turned on, 3 turned off
  1442 total angles, 1439 turned on, 3 turned off
  1236 total dihedrals, 1233 turned on, 3 turned off
  0 total impropers, 0 turned on, 0 turned off
Setting up run ...
Memory usage per processor = 8.23347 Mbytes
Step Temp E_pair E_mol TotEng Press 
    1775            0   -4478.5061    712.32704   -3766.1791   -10.442004 
    1776            0   -4478.5061    712.32704   -3766.1791   -10.442004 
Loop time of 0.0420401 on 1 procs for 1 steps with 4299 atoms
11 atoms in group beginOfchain
2 atoms in group restOfchain
System init for delete_bonds ...
Deleting bonds ...
  1648 total bonds, 1646 turned on, 2 turned off
  1442 total angles, 1440 turned on, 2 turned off
  1236 total dihedrals, 1234 turned on, 2 turned off
  0 total impropers, 0 turned on, 0 turned off
Setting up run ...
Memory usage per processor = 8.23347 Mbytes
Step Temp E_pair E_mol TotEng Press 
    1776            0   -4478.5061    712.33486   -3766.1713   -10.462888 
    1777            0   -4478.5061    712.33486   -3766.1713   -10.462888 
Loop time of 0.0422542 on 1 procs for 1 steps with 4299 atoms
12 atoms in group beginOfchain
1 atoms in group restOfchain
System init for delete_bonds ...
Deleting bonds ...
  1648 total bonds, 1647 turned on, 1 turned off
  1442 total angles, 1441 turned on, 1 turned off
  1236 total dihedrals, 1235 turned on, 1 turned off
  0 total impropers, 0 turned on, 0 turned off
Setting up run ...
Memory usage per processor = 8.23347 Mbytes
Step Temp E_pair E_mol TotEng Press 
    1777            0   -4478.5061    712.33122   -3766.1749   -10.483974 
    1778            0   -4478.5061    712.33122   -3766.1749   -10.483974 
Loop time of 0.0418799 on 1 procs for 1 steps with 4299 atoms
13 atoms in group beginOfchain
System init for delete_bonds ...
Deleting bonds ...
  1648 total bonds, 1648 turned on, 0 turned off
  1442 total angles, 1442 turned on, 0 turned off
  1236 total dihedrals, 1236 turned on, 0 turned off
  0 total impropers, 0 turned on, 0 turned off
Setting up run ...
Memory usage per processor = 8.23347 Mbytes
Step Temp E_pair E_mol TotEng Press 
    1778            0   -4478.5061     712.3268   -3766.1793   -10.506082 
    1779            0   -4478.5061     712.3268   -3766.1793   -10.506082 
Loop time of 0.0418739 on 1 procs for 1 steps with 4299 atoms
10 atoms in group restOfchain
System init for delete_bonds ...
Deleting bonds ...
  1648 total bonds, 1638 turned on, 10 turned off
  1442 total angles, 1432 turned on, 10 turned off
  1236 total dihedrals, 1226 turned on, 10 turned off
  0 total impropers, 0 turned on, 0 turned off
Setting up run ...
Memory usage per processor = 8.23347 Mbytes
Step Temp E_pair E_mol TotEng Press 
    1779            0   -4478.5061    713.25201   -3765.2541   -10.307013 
    1780            0   -4478.5061    713.25201   -3765.2541   -10.307013 
Loop time of 0.042001 on 1 procs for 1 steps with 4299 atoms
4 atoms in group beginOfchain
9 atoms in group restOfchain
System init for delete_bonds ...
Deleting bonds ...
  1648 total bonds, 1639 turned on, 9 turned off
  1442 total angles, 1433 turned on, 9 turned off
  1236 total dihedrals, 1227 turned on, 9 turned off
  0 total impropers, 0 turned on, 0 turned off
Setting up run ...
Memory usage per processor = 8.23347 Mbytes
Step Temp E_pair E_mol TotEng Press 
    1780            0    -4477.654    718.98042   -3758.6736   -10.067566 
    1781            0    -4477.654    718.98042   -3758.6736   -10.067566 
Loop time of 0.042273 on 1 procs for 1 steps with 4299 atoms
Setting up run ...
Memory usage per processor = 8.23347 Mbytes
Step Temp E_pair E_mol TotEng Press 
    1781            0   -4477.6599    721.20448   -3756.4554   -10.029098 
    1782            0   -4477.6599    721.20448   -3756.4554   -10.029098 
Loop time of 0.042171 on 1 procs for 1 steps with 4299 atoms
Setting up run ...
Memory usage per processor = 8.23347 Mbytes
Step Temp E_pair E_mol TotEng Press 
    1782            0   -4480.8371    930.65118    -3550.186    -8.640025 
    1783            0   -4480.8371    930.65118    -3550.186    -8.640025 
Loop time of 0.0422881 on 1 procs for 1 steps with 4299 atoms
Setting up run ...
Memory usage per processor = 8.23347 Mbytes
Step Temp E_pair E_mol TotEng Press 
    1783            0   -4479.5186    1199.1118   -3280.4068    -7.791479 
    1784            0   -4479.5186    1199.1118   -3280.4068    -7.791479 
Loop time of 0.042361 on 1 procs for 1 steps with 4299 atoms
Setting up run ...
Memory usage per processor = 8.23347 Mbytes
Step Temp E_pair E_mol TotEng Press 
    1784            0   -4479.9454     1633.601   -2846.3444   -7.0530458 
    1785            0   -4479.9454     1633.601   -2846.3444   -7.0530458 
Loop time of 0.0422258 on 1 procs for 1 steps with 4299 atoms
Setting up run ...
Memory usage per processor = 8.23347 Mbytes
Step Temp E_pair E_mol TotEng Press 
    1785            0    -4477.654    718.98042   -3758.6736   -10.067566 
    1786            0    -4477.654    718.98042   -3758.6736   -10.067566 
Loop time of 0.042026 on 1 procs for 1 steps with 4299 atoms
5 atoms in group beginOfchain
8 atoms in group restOfchain
System init for delete_bonds ...
Deleting bonds ...
  1648 total bonds, 1640 turned on, 8 turned off
  1442 total angles, 1434 turned on, 8 turned off
  1236 total dihedrals, 1228 turned on, 8 turned off
  0 total impropers, 0 turned on, 0 turned off
Setting up run ...
Memory usage per processor = 8.23347 Mbytes
Step Temp E_pair E_mol TotEng Press 
    1786            0 3.6259904e+10    793.20527 3.6259905e+10 6.2960581e+08 
    1787            0 3.6259904e+10    793.20527 3.6259905e+10 6.2960581e+08 
Loop time of 0.0419929 on 1 procs for 1 steps with 4299 atoms
Setting up run ...
Memory usage per processor = 8.23347 Mbytes
Step Temp E_pair E_mol TotEng Press 
    1787            0   -4477.2272    736.00631   -3741.2209   -10.392329 
    1788            0   -4477.2272    736.00631   -3741.2209   -10.392329 
Loop time of 0.0419781 on 1 procs for 1 steps with 4299 atoms
Setting up run ...
Memory usage per processor = 8.23347 Mbytes
Step Temp E_pair E_mol TotEng Press 
    1788            0   -4477.3678     725.8443   -3751.5235   -10.281606 
    1789            0   -4477.3678     725.8443   -3751.5235   -10.281606 
Loop time of 0.04212 on 1 procs for 1 steps with 4299 atoms
Setting up run ...
Memory usage per processor = 8.23347 Mbytes
Step Temp E_pair E_mol TotEng Press 
    1789            0   -4477.9277    723.37079   -3754.5569   -9.8745989 
    1790            0   -4477.9277    723.37079   -3754.5569   -9.8745989 
Loop time of 0.042238 on 1 procs for 1 steps with 4299 atoms
Setting up run ...
Memory usage per processor = 8.23347 Mbytes
Step Temp E_pair E_mol TotEng Press 
    1790            0   -4477.9019     724.0102   -3753.8917   -9.8615894 
    1791            0   -4477.9019     724.0102   -3753.8917   -9.8615894 
Loop time of 0.0425179 on 1 procs for 1 steps with 4299 atoms
Setting up run ...
Memory usage per processor = 8.23347 Mbytes
Step Temp E_pair E_mol TotEng Press 
    1791            0   -4477.9019     724.0102   -3753.8917   -9.8615894 
    1792            0   -4477.9019     724.0102   -3753.8917   -9.8615894 
Loop time of 0.042166 on 1 procs for 1 steps with 4299 atoms
6 atoms in group beginOfchain
7 atoms in group restOfchain
System init for delete_bonds ...
Deleting bonds ...
  1648 total bonds, 1641 turned on, 7 turned off
  1442 total angles, 1435 turned on, 7 turned off
  1236 total dihedrals, 1229 turned on, 7 turned off
  0 total impropers, 0 turned on, 0 turned off
Setting up run ...
Memory usage per processor = 8.23347 Mbytes
Step Temp E_pair E_mol TotEng Press 
    1792            0    -4478.592    884.94643   -3593.6455   -8.4619624 
    1793            0    -4478.592    884.94643   -3593.6455   -8.4619624 
Loop time of 0.0420229 on 1 procs for 1 steps with 4299 atoms
Setting up run ...
Memory usage per processor = 8.23347 Mbytes
Step Temp E_pair E_mol TotEng Press 
    1793            0   -3673.9832    752.49505   -2921.4882    5.2465632 
    1794            0   -3673.9832    752.49505   -2921.4882    5.2465632 
Loop time of 0.042254 on 1 procs for 1 steps with 4299 atoms
Setting up run ...
Memory usage per processor = 8.23347 Mbytes
Step Temp E_pair E_mol TotEng Press 
    1794            0 1.5270114e+09     846.1222 1.5270123e+09     26514832 
    1795            0 1.5270114e+09     846.1222 1.5270123e+09     26514832 
Loop time of 0.0419478 on 1 procs for 1 steps with 4299 atoms
Setting up run ...
Memory usage per processor = 8.23347 Mbytes
Step Temp E_pair E_mol TotEng Press 
    1795            0    1821337.9    894.02305    1822231.9    31704.413 
    1796            0    1821337.9    894.02305    1822231.9    31704.413 
Loop time of 0.0421791 on 1 procs for 1 steps with 4299 atoms
Setting up run ...
Memory usage per processor = 8.23347 Mbytes
Step Temp E_pair E_mol TotEng Press 
    1796            0    624.57285    938.41732    1562.9902     81.21976 
    1797            0    624.57285    938.41732    1562.9902     81.21976 
Loop time of 0.0422301 on 1 procs for 1 steps with 4299 atoms
Setting up run ...
Memory usage per processor = 8.23347 Mbytes
Step Temp E_pair E_mol TotEng Press 
    1797            0    -4478.592    884.94643   -3593.6455   -8.4619624 
    1798            0    -4478.592    884.94643   -3593.6455   -8.4619624 
Loop time of 0.0419981 on 1 procs for 1 steps with 4299 atoms
7 atoms in group beginOfchain
6 atoms in group restOfchain
System init for delete_bonds ...
Deleting bonds ...
  1648 total bonds, 1642 turned on, 6 turned off
  1442 total angles, 1436 turned on, 6 turned off
  1236 total dihedrals, 1230 turned on, 6 turned off
  0 total impropers, 0 turned on, 0 turned off
Setting up run ...
Memory usage per processor = 8.23347 Mbytes
Step Temp E_pair E_mol TotEng Press 
    1798            0   -4478.3387    1008.7819   -3469.5568   -7.2219927 
    1799            0   -4478.3387    1008.7819   -3469.5568   -7.2219927 
Loop time of 0.04182 on 1 procs for 1 steps with 4299 atoms
Setting up run ...
Memory usage per processor = 8.23347 Mbytes
Step Temp E_pair E_mol TotEng Press 
    1799            0   -4477.2278    1209.8874   -3267.3404   -6.3760353 
    1800            0   -4477.2278    1209.8874   -3267.3404   -6.3760353 
Loop time of 0.0420899 on 1 procs for 1 steps with 4299 atoms
Setting up run ...
Memory usage per processor = 8.23347 Mbytes
Step Temp E_pair E_mol TotEng Press 
    1800            0   -4476.7498    1306.3489   -3170.4009   -6.0755811 
    1801            0   -4476.7498    1306.3489   -3170.4009   -6.0755811 
Loop time of 0.041862 on 1 procs for 1 steps with 4299 atoms
Setting up run ...
Memory usage per processor = 8.23347 Mbytes
Step Temp E_pair E_mol TotEng Press 
    1801            0   -4476.3681    1375.5485   -3100.8197   -5.9036514 
    1802            0   -4476.3681    1375.5485   -3100.8197   -5.9036514 
Loop time of 0.0419171 on 1 procs for 1 steps with 4299 atoms
Setting up run ...
Memory usage per processor = 8.23347 Mbytes
Step Temp E_pair E_mol TotEng Press 
    1802            0   -4476.3265    1384.5455    -3091.781   -5.8798266 
    1803            0   -4476.3265    1384.5455    -3091.781   -5.8798266 
Loop time of 0.042222 on 1 procs for 1 steps with 4299 atoms
Setting up run ...
Memory usage per processor = 8.23347 Mbytes
Step Temp E_pair E_mol TotEng Press 
    1803            0   -4478.3387    1008.7819   -3469.5568   -7.2219927 
    1804            0   -4478.3387    1008.7819   -3469.5568   -7.2219927 
Loop time of 0.0421031 on 1 procs for 1 steps with 4299 atoms
