LAMMPS (15 May 2015)
# LAMMPS 2005 MD Simulation Parameters - Generated by XenoView
# Structure file "C:\Users\Steven\Desktop\LAMMPS_Science_Simulation\ddt_me_100.lmp"
# Source force field file pcff_d.frc

units		real
atom_style	full

pair_style	hybrid/overlay lj/cut 10 morse 10 hbond/dreiding/lj 4 9.0 11.0 90
bond_style      class2
angle_style     class2
dihedral_style  class2

read_data	addmolecule_184_rand.lmp
  orthogonal box = (-20.81 -20.5075 -20.0455) to (100.81 100.507 100.046)
  1 by 1 by 1 MPI processor grid
  reading atoms ...
  3815 atoms
  reading velocities ...
  3815 velocities
  scanning bonds ...
  2 = max bonds/atom
  scanning angles ...
  1 = max angles/atom
  scanning dihedrals ...
  2 = max dihedrals/atom
  reading bonds ...
  1680 bonds
  reading angles ...
  1470 angles
  reading dihedrals ...
  1260 dihedrals
  2 = max # of 1-2 neighbors
  2 = max # of 1-3 neighbors
  4 = max # of 1-4 neighbors
  6 = max # of special neighbors

pair_coeff	1	1	lj/cut	0.039	2.935
pair_coeff	2	2	lj/cut	0.118	3.905
pair_coeff	3	3	lj/cut	0.175	3.905
pair_coeff	4	4	lj/cut	0.39743	4.25
pair_coeff	5	5	lj/cut	0.2	2.85
pair_coeff	5	5	hbond/dreiding/lj 6 i 5.0 2.850 4
pair_coeff	6	6	lj/cut	0	1.78

pair_coeff	1	2	lj/cut	0.067838042	3.42
pair_coeff	1	3	lj/cut	0.082613558	3.42
#pair_coeff	1	4	lj/cut	0.124498072	3.5925
pair_coeff	1	5	lj/cut	0.088317609	2.8925
pair_coeff	1	6	lj/cut	0	2.3575
pair_coeff	2	3	lj/cut	0.143701079	3.905
pair_coeff	2	4	lj/cut	0.216556552	4.0775
pair_coeff	2	5	lj/cut	0.153622915	3.3775
pair_coeff	2	6	lj/cut	0	2.8425
pair_coeff	3	4	lj/cut	0.263723814	4.0775
pair_coeff	3	5	lj/cut	0.187082869	3.3775
pair_coeff	3	6	lj/cut	0	2.8425
pair_coeff	4	5	lj/cut	0.281932616	3.55
pair_coeff	4	6	lj/cut	0	3.015
pair_coeff	5	6	lj/cut	0	2.315


pair_coeff 1 4 morse 5.58 0.746 2.868

#neighbor	1 bin
neigh_modify	delay 5

#comm_modify cutoff 14

timestep	0.5

group crystal type 1
1925 atoms in group crystal
group adsorbate type 2 3 4 5 6
1890 atoms in group adsorbate

#compute GYR adsorbate gyration/molecule
#compute MMSD adsorbate msd/molecule
compute PE all pe
#compute KE all ke


#fix 3 adsorbate ave/time 100 1 100 c_GYR file gyr.out mode vector
#fix 4 adsorbate ave/time 100 1 100 c_MMSD[4] file mmsd.out mode vector
fix 5 all ave/time 100 1 100 c_PE file pe.out mode scalar
#fix 6 all ave/time 100 1 100 c_KE file ke.out mode scalar


thermo_style	custom step etotal ke temp pe ebond eangle edihed eimp evdwl ecoul elong press
thermo	10

compute myTemp adsorbate temp

thermo_modify temp myTemp
WARNING: Temperature for thermo pressure is not for group all (../thermo.cpp:445)

fix 1 adsorbate nvt temp 298 298 10
fix 2 crystal setforce 0.0 0.0 0.0

dump 2 all xyz 100 ddt_me_200.xyz

#minimize 1.0e-4 1.0e-6 100 1000

run	 0
Neighbor list info ...
  5 neighbor list requests
  update every 1 steps, delay 5 steps, check yes
  master list distance cutoff = 13
Memory usage per processor = 7.89852 Mbytes
Step TotEng KinEng Temp PotEng E_bond E_angle E_dihed E_impro E_vdwl E_coul E_long Press 
       0   -19694.965            0            0   -19694.965    73.642141    37.757433   -767.84796            0   -19038.517            0            0   -404.68588 
Loop time of 2.86102e-06 on 1 procs for 0 steps with 3815 atoms

Pair  time (%) = 0 (0)
Bond  time (%) = 0 (0)
Neigh time (%) = 0 (0)
Comm  time (%) = 0 (0)
Outpt time (%) = 0 (0)
Other time (%) = 2.86102e-06 (100)

Nlocal:    3815 ave 3815 max 3815 min
Histogram: 1 0 0 0 0 0 0 0 0 0
Nghost:    0 ave 0 max 0 min
Histogram: 1 0 0 0 0 0 0 0 0 0
Neighs:    482491 ave 482491 max 482491 min
Histogram: 1 0 0 0 0 0 0 0 0 0
FullNghs:  964982 ave 964982 max 964982 min
Histogram: 1 0 0 0 0 0 0 0 0 0

Total # of neighbors = 964982
Ave neighs/atom = 252.944
Ave special neighs/atom = 2.31193
Neighbor list builds = 0
Dangerous builds = 0

write_data ddt_me_relax.temp
neigh_modify exclude type 1 1
run 1 pre no post no
Step TotEng KinEng Temp PotEng E_bond E_angle E_dihed E_impro E_vdwl E_coul E_long Press 
       0   -19694.965            0            0   -19694.965    73.642141    37.757433   -767.84796            0   -19038.517            0            0   -404.68588 
       1   -19038.505  0.091772446   0.01629844   -19038.597            0            0            0            0   -19038.597            0            0   -335.04882 
Loop time of 0.029319 on 1 procs for 1 steps with 3815 atoms
run 1 pre no post no
Step TotEng KinEng Temp PotEng E_bond E_angle E_dihed E_impro E_vdwl E_coul E_long Press 
       1   -19038.505  0.091772446   0.01629844   -19038.597            0            0            0            0   -19038.597            0            0   -335.04882 
       2   -19038.503   0.37075193  0.065844144   -19038.874            0            0            0            0   -19038.874            0            0   -335.07352 
Loop time of 0.028985 on 1 procs for 1 steps with 3815 atoms
run 1 pre no post no
Step TotEng KinEng Temp PotEng E_bond E_angle E_dihed E_impro E_vdwl E_coul E_long Press 
       2   -19038.503   0.37075193  0.065844144   -19038.874            0            0            0            0   -19038.874            0            0   -335.07352 
       3   -19038.495   0.85256028   0.15141149   -19039.348            0            0            0            0   -19039.348            0            0   -335.11511 
Loop time of 0.0290282 on 1 procs for 1 steps with 3815 atoms
run 1 pre no post no
Step TotEng KinEng Temp PotEng E_bond E_angle E_dihed E_impro E_vdwl E_coul E_long Press 
       3   -19038.495   0.85256028   0.15141149   -19039.348            0            0            0            0   -19039.348            0            0   -335.11511 
       4   -19038.478    1.5405523   0.27359628   -19040.019            0            0            0            0   -19040.019            0            0   -335.17355 
Loop time of 0.0289888 on 1 procs for 1 steps with 3815 atoms
run 1 pre no post no
Step TotEng KinEng Temp PotEng E_bond E_angle E_dihed E_impro E_vdwl E_coul E_long Press 
       4   -19038.478    1.5405523   0.27359628   -19040.019            0            0            0            0   -19040.019            0            0   -335.17355 
       5   -19038.455    2.4340233   0.43227337   -19040.889            0            0            0            0   -19040.889            0            0   -335.24919 
Loop time of 0.028934 on 1 procs for 1 steps with 3815 atoms
run 1 pre no post no
Step TotEng KinEng Temp PotEng E_bond E_angle E_dihed E_impro E_vdwl E_coul E_long Press 
       5   -19038.455    2.4340233   0.43227337   -19040.889            0            0            0            0   -19040.889            0            0   -335.24919 
       6   -19038.421    3.5316392   0.62720581   -19041.952            0            0            0            0   -19041.952            0            0   -335.34169 
Loop time of 0.0289309 on 1 procs for 1 steps with 3815 atoms
run 1 pre no post no
Step TotEng KinEng Temp PotEng E_bond E_angle E_dihed E_impro E_vdwl E_coul E_long Press 
       6   -19038.421    3.5316392   0.62720581   -19041.952            0            0            0            0   -19041.952            0            0   -335.34169 
       7   -19038.373    4.8356283   0.85878935   -19043.209            0            0            0            0   -19043.209            0            0   -335.45105 
Loop time of 0.0290639 on 1 procs for 1 steps with 3815 atoms
run 1 pre no post no
Step TotEng KinEng Temp PotEng E_bond E_angle E_dihed E_impro E_vdwl E_coul E_long Press 
       7   -19038.373    4.8356283   0.85878935   -19043.209            0            0            0            0   -19043.209            0            0   -335.45105 
       8   -19038.303    6.3506252    1.1278471   -19044.654            0            0            0            0   -19044.654            0            0   -335.57699 
Loop time of 0.028964 on 1 procs for 1 steps with 3815 atoms
run 1 pre no post no
Step TotEng KinEng Temp PotEng E_bond E_angle E_dihed E_impro E_vdwl E_coul E_long Press 
       8   -19038.303    6.3506252    1.1278471   -19044.654            0            0            0            0   -19044.654            0            0   -335.57699 
       9   -19038.206    8.0805473    1.4350747   -19046.287            0            0            0            0   -19046.287            0            0   -335.71952 
Loop time of 0.0290082 on 1 procs for 1 steps with 3815 atoms
run 1 pre no post no
Step TotEng KinEng Temp PotEng E_bond E_angle E_dihed E_impro E_vdwl E_coul E_long Press 
       9   -19038.206    8.0805473    1.4350747   -19046.287            0            0            0            0   -19046.287            0            0   -335.71952 
      10   -19038.084    10.026379    1.7806471    -19048.11            0            0            0            0    -19048.11            0            0   -335.87897 
Loop time of 0.0290191 on 1 procs for 1 steps with 3815 atoms
run 1 pre no post no
Step TotEng KinEng Temp PotEng E_bond E_angle E_dihed E_impro E_vdwl E_coul E_long Press 
      10   -19038.084    10.026379    1.7806471    -19048.11            0            0            0            0    -19048.11            0            0   -335.87897 
      11    -19037.97    12.186239      2.16423   -19050.157            0            0            0            0   -19050.157            0            0   -336.05917 
Loop time of 0.0289669 on 1 procs for 1 steps with 3815 atoms
run 1 pre no post no
Step TotEng KinEng Temp PotEng E_bond E_angle E_dihed E_impro E_vdwl E_coul E_long Press 
      11    -19037.97    12.186239      2.16423   -19050.157            0            0            0            0   -19050.157            0            0   -336.05917 
      12   -19037.756     14.55698    2.5852648   -19052.313            0            0            0            0   -19052.313            0            0   -336.24962 
Loop time of 0.028899 on 1 procs for 1 steps with 3815 atoms
run 1 pre no post no
Step TotEng KinEng Temp PotEng E_bond E_angle E_dihed E_impro E_vdwl E_coul E_long Press 
      12   -19037.756     14.55698    2.5852648   -19052.313            0            0            0            0   -19052.313            0            0   -336.24962 
      13   -19037.496    17.135273    3.0431598   -19054.632            0            0            0            0   -19054.632            0            0   -336.45572 
Loop time of 0.028897 on 1 procs for 1 steps with 3815 atoms
run 1 pre no post no
Step TotEng KinEng Temp PotEng E_bond E_angle E_dihed E_impro E_vdwl E_coul E_long Press 
      13   -19037.496    17.135273    3.0431598   -19054.632            0            0            0            0   -19054.632            0            0   -336.45572 
      14   -19037.306    19.917506     3.537274   -19057.224            0            0            0            0   -19057.224            0            0   -336.68838 
Loop time of 0.029027 on 1 procs for 1 steps with 3815 atoms
run 1 pre no post no
Step TotEng KinEng Temp PotEng E_bond E_angle E_dihed E_impro E_vdwl E_coul E_long Press 
      14   -19037.306    19.917506     3.537274   -19057.224            0            0            0            0   -19057.224            0            0   -336.68838 
      15   -19036.948    22.899224    4.0668158   -19059.847            0            0            0            0   -19059.847            0            0   -336.92511 
Loop time of 0.029031 on 1 procs for 1 steps with 3815 atoms
run 1 pre no post no
Step TotEng KinEng Temp PotEng E_bond E_angle E_dihed E_impro E_vdwl E_coul E_long Press 
      15   -19036.948    22.899224    4.0668158   -19059.847            0            0            0            0   -19059.847            0            0   -336.92511 
      16   -19036.587    26.074808    4.6307875   -19062.662            0            0            0            0   -19062.662            0            0   -337.18171 
Loop time of 0.028995 on 1 procs for 1 steps with 3815 atoms
run 1 pre no post no
Step TotEng KinEng Temp PotEng E_bond E_angle E_dihed E_impro E_vdwl E_coul E_long Press 
      16   -19036.587    26.074808    4.6307875   -19062.662            0            0            0            0   -19062.662            0            0   -337.18171 
      17   -19036.164    29.437522    5.2279928   -19065.602            0            0            0            0   -19065.602            0            0   -337.45242 
Loop time of 0.028985 on 1 procs for 1 steps with 3815 atoms
run 1 pre no post no
Step TotEng KinEng Temp PotEng E_bond E_angle E_dihed E_impro E_vdwl E_coul E_long Press 
      17   -19036.164    29.437522    5.2279928   -19065.602            0            0            0            0   -19065.602            0            0   -337.45242 
      18   -19035.674    32.979704    5.8570711   -19068.654            0            0            0            0   -19068.654            0            0   -337.73657 
Loop time of 0.0289381 on 1 procs for 1 steps with 3815 atoms
run 1 pre no post no
Step TotEng KinEng Temp PotEng E_bond E_angle E_dihed E_impro E_vdwl E_coul E_long Press 
      18   -19035.674    32.979704    5.8570711   -19068.654            0            0            0            0   -19068.654            0            0   -337.73657 
      19   -19035.109    36.693018    6.5165416   -19071.802            0            0            0            0   -19071.802            0            0   -338.03322 
Loop time of 0.0288699 on 1 procs for 1 steps with 3815 atoms
run 1 pre no post no
Step TotEng KinEng Temp PotEng E_bond E_angle E_dihed E_impro E_vdwl E_coul E_long Press 
      19   -19035.109    36.693018    6.5165416   -19071.802            0            0            0            0   -19071.802            0            0   -338.03322 
      20   -19034.474    40.568703    7.2048487   -19075.043            0            0            0            0   -19075.043            0            0   -338.34249 
Loop time of 0.02895 on 1 procs for 1 steps with 3815 atoms
run 1 pre no post no
Step TotEng KinEng Temp PotEng E_bond E_angle E_dihed E_impro E_vdwl E_coul E_long Press 
      20   -19034.474    40.568703    7.2048487   -19075.043            0            0            0            0   -19075.043            0            0   -338.34249 
      21   -19033.698    44.597843    7.9204087   -19078.296            0            0            0            0   -19078.296            0            0   -338.65727 
Loop time of 0.0289831 on 1 procs for 1 steps with 3815 atoms
run 1 pre no post no
Step TotEng KinEng Temp PotEng E_bond E_angle E_dihed E_impro E_vdwl E_coul E_long Press 
      21   -19033.698    44.597843    7.9204087   -19078.296            0            0            0            0   -19078.296            0            0   -338.65727 
      22   -19032.841    48.771709    8.6616715   -19081.613            0            0            0            0   -19081.613            0            0   -338.98287 
Loop time of 0.028985 on 1 procs for 1 steps with 3815 atoms
run 1 pre no post no
Step TotEng KinEng Temp PotEng E_bond E_angle E_dihed E_impro E_vdwl E_coul E_long Press 
      22   -19032.841    48.771709    8.6616715   -19081.613            0            0            0            0   -19081.613            0            0   -338.98287 
      23   -19031.948    53.082168    9.4271928    -19085.03            0            0            0            0    -19085.03            0            0   -339.32314 
Loop time of 0.0289662 on 1 procs for 1 steps with 3815 atoms
run 1 pre no post no
Step TotEng KinEng Temp PotEng E_bond E_angle E_dihed E_impro E_vdwl E_coul E_long Press 
      23   -19031.948    53.082168    9.4271928    -19085.03            0            0            0            0    -19085.03            0            0   -339.32314 
      24   -19030.961    57.522037    10.215697   -19088.483            0            0            0            0   -19088.483            0            0   -339.67202 
Loop time of 0.0289972 on 1 procs for 1 steps with 3815 atoms
run 1 pre no post no
Step TotEng KinEng Temp PotEng E_bond E_angle E_dihed E_impro E_vdwl E_coul E_long Press 
      24   -19030.961    57.522037    10.215697   -19088.483            0            0            0            0   -19088.483            0            0   -339.67202 
      25   -19029.982    62.085455    11.026143   -19092.067            0            0            0            0   -19092.067            0            0   -340.03889 
Loop time of 0.0289631 on 1 procs for 1 steps with 3815 atoms
run 1 pre no post no
Step TotEng KinEng Temp PotEng E_bond E_angle E_dihed E_impro E_vdwl E_coul E_long Press 
      25   -19029.982    62.085455    11.026143   -19092.067            0            0            0            0   -19092.067            0            0   -340.03889 
      26   -19028.749    66.768194     11.85778   -19095.517            0            0            0            0   -19095.517            0            0   -340.39765 
Loop time of 0.028955 on 1 procs for 1 steps with 3815 atoms
run 1 pre no post no
Step TotEng KinEng Temp PotEng E_bond E_angle E_dihed E_impro E_vdwl E_coul E_long Press 
      26   -19028.749    66.768194     11.85778   -19095.517            0            0            0            0   -19095.517            0            0   -340.39765 
      27   -19027.467    71.567931    12.710195   -19099.035            0            0            0            0   -19099.035            0            0   -340.76768 
Loop time of 0.0289481 on 1 procs for 1 steps with 3815 atoms
run 1 pre no post no
Step TotEng KinEng Temp PotEng E_bond E_angle E_dihed E_impro E_vdwl E_coul E_long Press 
      27   -19027.467    71.567931    12.710195   -19099.035            0            0            0            0   -19099.035            0            0   -340.76768 
      28    -19026.02    76.484452     13.58335   -19102.504            0            0            0            0   -19102.504            0            0   -341.13737 
Loop time of 0.028883 on 1 procs for 1 steps with 3815 atoms
run 1 pre no post no
Step TotEng KinEng Temp PotEng E_bond E_angle E_dihed E_impro E_vdwl E_coul E_long Press 
      28    -19026.02    76.484452     13.58335   -19102.504            0            0            0            0   -19102.504            0            0   -341.13737 
      29   -19024.683    81.519769    14.477604   -19106.202            0            0            0            0   -19106.202            0            0   -341.53259 
Loop time of 0.028954 on 1 procs for 1 steps with 3815 atoms
run 1 pre no post no
Step TotEng KinEng Temp PotEng E_bond E_angle E_dihed E_impro E_vdwl E_coul E_long Press 
      29   -19024.683    81.519769    14.477604   -19106.202            0            0            0            0   -19106.202            0            0   -341.53259 
      30   -19023.074    86.678074    15.393699   -19109.752            0            0            0            0   -19109.752            0            0   -341.91624 
Loop time of 0.0288959 on 1 procs for 1 steps with 3815 atoms
run 1 pre no post no
Step TotEng KinEng Temp PotEng E_bond E_angle E_dihed E_impro E_vdwl E_coul E_long Press 
      30   -19023.074    86.678074    15.393699   -19109.752            0            0            0            0   -19109.752            0            0   -341.91624 
      31    -19021.51     91.96565    16.332753   -19113.476            0            0            0            0   -19113.476            0            0   -342.31841 
Loop time of 0.0289531 on 1 procs for 1 steps with 3815 atoms
run 1 pre no post no
Step TotEng KinEng Temp PotEng E_bond E_angle E_dihed E_impro E_vdwl E_coul E_long Press 
      31    -19021.51     91.96565    16.332753   -19113.476            0            0            0            0   -19113.476            0            0   -342.31841 
      32   -19019.721    97.390677    17.296217   -19117.112            0            0            0            0   -19117.112            0            0   -342.71286 
Loop time of 0.0290179 on 1 procs for 1 steps with 3815 atoms
run 1 pre no post no
Step TotEng KinEng Temp PotEng E_bond E_angle E_dihed E_impro E_vdwl E_coul E_long Press 
      32   -19019.721    97.390677    17.296217   -19117.112            0            0            0            0   -19117.112            0            0   -342.71286 
      33   -19017.918    102.96299    18.285838   -19120.881            0            0            0            0   -19120.881            0            0   -343.11975 
Loop time of 0.0289121 on 1 procs for 1 steps with 3815 atoms
run 1 pre no post no
Step TotEng KinEng Temp PotEng E_bond E_angle E_dihed E_impro E_vdwl E_coul E_long Press 
      33   -19017.918    102.96299    18.285838   -19120.881            0            0            0            0   -19120.881            0            0   -343.11975 
      34    -19015.77    108.69374    19.303599   -19124.464            0            0            0            0   -19124.464            0            0   -343.50708 
Loop time of 0.0289421 on 1 procs for 1 steps with 3815 atoms
run 1 pre no post no
Step TotEng KinEng Temp PotEng E_bond E_angle E_dihed E_impro E_vdwl E_coul E_long Press 
      34    -19015.77    108.69374    19.303599   -19124.464            0            0            0            0   -19124.464            0            0   -343.50708 
      35   -19013.548    114.59515    20.351667   -19128.143            0            0            0            0   -19128.143            0            0   -343.90082 
Loop time of 0.0289838 on 1 procs for 1 steps with 3815 atoms
run 1 pre no post no
Step TotEng KinEng Temp PotEng E_bond E_angle E_dihed E_impro E_vdwl E_coul E_long Press 
      35   -19013.548    114.59515    20.351667   -19128.143            0            0            0            0   -19128.143            0            0   -343.90082 
      36   -19011.348    120.68023    21.432354   -19132.028            0            0            0            0   -19132.028            0            0   -344.31051 
Loop time of 0.0289419 on 1 procs for 1 steps with 3815 atoms
run 1 pre no post no
Step TotEng KinEng Temp PotEng E_bond E_angle E_dihed E_impro E_vdwl E_coul E_long Press 
      36   -19011.348    120.68023    21.432354   -19132.028            0            0            0            0   -19132.028            0            0   -344.31051 
      37   -19008.949    126.96235    22.548034   -19135.911            0            0            0            0   -19135.911            0            0    -344.7148 
Loop time of 0.028975 on 1 procs for 1 steps with 3815 atoms
run 1 pre no post no
Step TotEng KinEng Temp PotEng E_bond E_angle E_dihed E_impro E_vdwl E_coul E_long Press 
      37   -19008.949    126.96235    22.548034   -19135.911            0            0            0            0   -19135.911            0            0    -344.7148 
      38   -19006.307    133.45488    23.701084   -19139.762            0            0            0            0   -19139.762            0            0   -345.10942 
Loop time of 0.028959 on 1 procs for 1 steps with 3815 atoms
run 1 pre no post no
Step TotEng KinEng Temp PotEng E_bond E_angle E_dihed E_impro E_vdwl E_coul E_long Press 
      38   -19006.307    133.45488    23.701084   -19139.762            0            0            0            0   -19139.762            0            0   -345.10942 
      39   -19003.462    140.17105    24.893849   -19143.633            0            0            0            0   -19143.633            0            0   -345.49841 
Loop time of 0.0289819 on 1 procs for 1 steps with 3815 atoms
run 1 pre no post no
Step TotEng KinEng Temp PotEng E_bond E_angle E_dihed E_impro E_vdwl E_coul E_long Press 
      39   -19003.462    140.17105    24.893849   -19143.633            0            0            0            0   -19143.633            0            0   -345.49841 
      40   -19000.453    147.12373    26.128621   -19147.577            0            0            0            0   -19147.577            0            0   -345.88613 
Loop time of 0.0289071 on 1 procs for 1 steps with 3815 atoms
run 1 pre no post no
Step TotEng KinEng Temp PotEng E_bond E_angle E_dihed E_impro E_vdwl E_coul E_long Press 
      40   -19000.453    147.12373    26.128621   -19147.577            0            0            0            0   -19147.577            0            0   -345.88613 
      41   -18997.653    154.32544    27.407617   -19151.978            0            0            0            0   -19151.978            0            0   -346.30847 
Loop time of 0.0289111 on 1 procs for 1 steps with 3815 atoms
run 1 pre no post no
Step TotEng KinEng Temp PotEng E_bond E_angle E_dihed E_impro E_vdwl E_coul E_long Press 
      41   -18997.653    154.32544    27.407617   -19151.978            0            0            0            0   -19151.978            0            0   -346.30847 
      42   -18994.597      161.788    28.732938   -19156.385            0            0            0            0   -19156.385            0            0   -346.72057 
Loop time of 0.0289741 on 1 procs for 1 steps with 3815 atoms
run 1 pre no post no
Step TotEng KinEng Temp PotEng E_bond E_angle E_dihed E_impro E_vdwl E_coul E_long Press 
      42   -18994.597      161.788    28.732938   -19156.385            0            0            0            0   -19156.385            0            0   -346.72057 
      43   -18991.255    169.52231    30.106523   -19160.777            0            0            0            0   -19160.777            0            0   -347.12008 
Loop time of 0.02895 on 1 procs for 1 steps with 3815 atoms
run 1 pre no post no
Step TotEng KinEng Temp PotEng E_bond E_angle E_dihed E_impro E_vdwl E_coul E_long Press 
      43   -18991.255    169.52231    30.106523   -19160.777            0            0            0            0   -19160.777            0            0   -347.12008 
      44   -18987.571     177.5385    31.530167   -19165.109            0            0            0            0   -19165.109            0            0   -347.50174 
Loop time of 0.0289669 on 1 procs for 1 steps with 3815 atoms
run 1 pre no post no
Step TotEng KinEng Temp PotEng E_bond E_angle E_dihed E_impro E_vdwl E_coul E_long Press 
      44   -18987.571     177.5385    31.530167   -19165.109            0            0            0            0   -19165.109            0            0   -347.50174 
      45   -18983.813    185.84597    33.005544   -19169.659            0            0            0            0   -19169.659            0            0    -347.8916 
Loop time of 0.0290589 on 1 procs for 1 steps with 3815 atoms
run 1 pre no post no
Step TotEng KinEng Temp PotEng E_bond E_angle E_dihed E_impro E_vdwl E_coul E_long Press 
      45   -18983.813    185.84597    33.005544   -19169.659            0            0            0            0   -19169.659            0            0    -347.8916 
      46   -18979.915    194.45348    34.534204   -19174.368            0            0            0            0   -19174.368            0            0   -348.28352 
Loop time of 0.0289719 on 1 procs for 1 steps with 3815 atoms
run 1 pre no post no
Step TotEng KinEng Temp PotEng E_bond E_angle E_dihed E_impro E_vdwl E_coul E_long Press 
      46   -18979.915    194.45348    34.534204   -19174.368            0            0            0            0   -19174.368            0            0   -348.28352 
      47   -18975.994    203.36902    36.117571   -19179.363            0            0            0            0   -19179.363            0            0   -348.68872 
Loop time of 0.029099 on 1 procs for 1 steps with 3815 atoms
run 1 pre no post no
Step TotEng KinEng Temp PotEng E_bond E_angle E_dihed E_impro E_vdwl E_coul E_long Press 
      47   -18975.994    203.36902    36.117571   -19179.363            0            0            0            0   -19179.363            0            0   -348.68872 
      48   -18971.577    212.59991    37.756942   -19184.177            0            0            0            0   -19184.177            0            0   -349.06251 
Loop time of 0.029002 on 1 procs for 1 steps with 3815 atoms
run 1 pre no post no
Step TotEng KinEng Temp PotEng E_bond E_angle E_dihed E_impro E_vdwl E_coul E_long Press 
      48   -18971.577    212.59991    37.756942   -19184.177            0            0            0            0   -19184.177            0            0   -349.06251 
      49   -18967.131    222.15283    39.453505   -19189.284            0            0            0            0   -19189.284            0            0   -349.44911 
Loop time of 0.0291021 on 1 procs for 1 steps with 3815 atoms
run 1 pre no post no
Step TotEng KinEng Temp PotEng E_bond E_angle E_dihed E_impro E_vdwl E_coul E_long Press 
      49   -18967.131    222.15283    39.453505   -19189.284            0            0            0            0   -19189.284            0            0   -349.44911 
      50   -18962.399     232.0339    41.208346   -19194.433            0            0            0            0   -19194.433            0            0    -349.8246 
Loop time of 0.0290499 on 1 procs for 1 steps with 3815 atoms
run 1 pre no post no
Step TotEng KinEng Temp PotEng E_bond E_angle E_dihed E_impro E_vdwl E_coul E_long Press 
      50   -18962.399     232.0339    41.208346   -19194.433            0            0            0            0   -19194.433            0            0    -349.8246 
      51   -18957.335    242.24859    43.022436   -19199.583            0            0            0            0   -19199.583            0            0    -350.1844 
Loop time of 0.0290048 on 1 procs for 1 steps with 3815 atoms
run 1 pre no post no
Step TotEng KinEng Temp PotEng E_bond E_angle E_dihed E_impro E_vdwl E_coul E_long Press 
      51   -18957.335    242.24859    43.022436   -19199.583            0            0            0            0   -19199.583            0            0    -350.1844 
      52    -18952.14    252.80196    44.896674   -19204.942            0            0            0            0   -19204.942            0            0   -350.54824 
Loop time of 0.0289671 on 1 procs for 1 steps with 3815 atoms
run 1 pre no post no
Step TotEng KinEng Temp PotEng E_bond E_angle E_dihed E_impro E_vdwl E_coul E_long Press 
      52    -18952.14    252.80196    44.896674   -19204.942            0            0            0            0   -19204.942            0            0   -350.54824 
      53    -18946.81    263.69864    46.831884   -19210.508            0            0            0            0   -19210.508            0            0   -350.91557 
Loop time of 0.0290232 on 1 procs for 1 steps with 3815 atoms
run 1 pre no post no
Step TotEng KinEng Temp PotEng E_bond E_angle E_dihed E_impro E_vdwl E_coul E_long Press 
      53    -18946.81    263.69864    46.831884   -19210.508            0            0            0            0   -19210.508            0            0   -350.91557 
      54   -18941.306    274.94279    48.828802   -19216.249            0            0            0            0   -19216.249            0            0    -351.2825 
Loop time of 0.0289559 on 1 procs for 1 steps with 3815 atoms
run 1 pre no post no
Step TotEng KinEng Temp PotEng E_bond E_angle E_dihed E_impro E_vdwl E_coul E_long Press 
      54   -18941.306    274.94279    48.828802   -19216.249            0            0            0            0   -19216.249            0            0    -351.2825 
      55   -18935.244    286.53802    50.888071   -19221.782            0            0            0            0   -19221.782            0            0   -351.61291 
Loop time of 0.0289011 on 1 procs for 1 steps with 3815 atoms
run 1 pre no post no
Step TotEng KinEng Temp PotEng E_bond E_angle E_dihed E_impro E_vdwl E_coul E_long Press 
      55   -18935.244    286.53802    50.888071   -19221.782            0            0            0            0   -19221.782            0            0   -351.61291 
      56   -18929.262    298.48761    53.010273   -19227.749            0            0            0            0   -19227.749            0            0   -351.96743 
Loop time of 0.0290179 on 1 procs for 1 steps with 3815 atoms
run 1 pre no post no
Step TotEng KinEng Temp PotEng E_bond E_angle E_dihed E_impro E_vdwl E_coul E_long Press 
      56   -18929.262    298.48761    53.010273   -19227.749            0            0            0            0   -19227.749            0            0   -351.96743 
      57   -18923.068    310.79469    55.195964   -19233.863            0            0            0            0   -19233.863            0            0   -352.31828 
Loop time of 0.028914 on 1 procs for 1 steps with 3815 atoms
run 1 pre no post no
Step TotEng KinEng Temp PotEng E_bond E_angle E_dihed E_impro E_vdwl E_coul E_long Press 
      57   -18923.068    310.79469    55.195964   -19233.863            0            0            0            0   -19233.863            0            0   -352.31828 
      58   -18916.372    323.46172    57.445582   -19239.834            0            0            0            0   -19239.834            0            0   -352.63769 
Loop time of 0.028965 on 1 procs for 1 steps with 3815 atoms
run 1 pre no post no
Step TotEng KinEng Temp PotEng E_bond E_angle E_dihed E_impro E_vdwl E_coul E_long Press 
      58   -18916.372    323.46172    57.445582   -19239.834            0            0            0            0   -19239.834            0            0   -352.63769 
      59   -18909.573    336.49088    59.759511   -19246.064            0            0            0            0   -19246.064            0            0   -352.96357 
Loop time of 0.028991 on 1 procs for 1 steps with 3815 atoms
run 1 pre no post no
Step TotEng KinEng Temp PotEng E_bond E_angle E_dihed E_impro E_vdwl E_coul E_long Press 
      59   -18909.573    336.49088    59.759511   -19246.064            0            0            0            0   -19246.064            0            0   -352.96357 
      60   -18902.259    349.88388    62.138058   -19252.143            0            0            0            0   -19252.143            0            0   -353.25669 
Loop time of 0.0290182 on 1 procs for 1 steps with 3815 atoms
run 1 pre no post no
Step TotEng KinEng Temp PotEng E_bond E_angle E_dihed E_impro E_vdwl E_coul E_long Press 
      60   -18902.259    349.88388    62.138058   -19252.143            0            0            0            0   -19252.143            0            0   -353.25669 
      61   -18894.696    363.64198    64.581445   -19258.338            0            0            0            0   -19258.338            0            0   -353.54259 
Loop time of 0.0289769 on 1 procs for 1 steps with 3815 atoms
run 1 pre no post no
Step TotEng KinEng Temp PotEng E_bond E_angle E_dihed E_impro E_vdwl E_coul E_long Press 
      61   -18894.696    363.64198    64.581445   -19258.338            0            0            0            0   -19258.338            0            0   -353.54259 
      62   -18886.722    377.76618    67.089848   -19264.488            0            0            0            0   -19264.488            0            0   -353.80538 
Loop time of 0.0291619 on 1 procs for 1 steps with 3815 atoms
run 1 pre no post no
Step TotEng KinEng Temp PotEng E_bond E_angle E_dihed E_impro E_vdwl E_coul E_long Press 
      62   -18886.722    377.76618    67.089848   -19264.488            0            0            0            0   -19264.488            0            0   -353.80538 
      63   -18878.709    392.25727    69.663412   -19270.967            0            0            0            0   -19270.967            0            0   -354.08101 
Loop time of 0.028959 on 1 procs for 1 steps with 3815 atoms
run 1 pre no post no
Step TotEng KinEng Temp PotEng E_bond E_angle E_dihed E_impro E_vdwl E_coul E_long Press 
      63   -18878.709    392.25727    69.663412   -19270.967            0            0            0            0   -19270.967            0            0   -354.08101 
      64   -18870.158    407.11561    72.302197   -19277.274            0            0            0            0   -19277.274            0            0   -354.32124 
Loop time of 0.0289831 on 1 procs for 1 steps with 3815 atoms
run 1 pre no post no
Step TotEng KinEng Temp PotEng E_bond E_angle E_dihed E_impro E_vdwl E_coul E_long Press 
      64   -18870.158    407.11561    72.302197   -19277.274            0            0            0            0   -19277.274            0            0   -354.32124 
      65   -18861.457    422.34103    75.006175   -19283.798            0            0            0            0   -19283.798            0            0   -354.56314 
Loop time of 0.028923 on 1 procs for 1 steps with 3815 atoms
run 1 pre no post no
Step TotEng KinEng Temp PotEng E_bond E_angle E_dihed E_impro E_vdwl E_coul E_long Press 
      65   -18861.457    422.34103    75.006175   -19283.798            0            0            0            0   -19283.798            0            0   -354.56314 
      66   -18852.283    437.93313    77.775273   -19290.217            0            0            0            0   -19290.217            0            0   -354.77539 
Loop time of 0.02899 on 1 procs for 1 steps with 3815 atoms
run 1 pre no post no
Step TotEng KinEng Temp PotEng E_bond E_angle E_dihed E_impro E_vdwl E_coul E_long Press 
      66   -18852.283    437.93313    77.775273   -19290.217            0            0            0            0   -19290.217            0            0   -354.77539 
      67   -17139.517     387.8834     68.88663     -17527.4    2406.4412    275.11453   -912.39447            0   -19296.562            0            0   -88.880342 
Loop time of 0.103382 on 1 procs for 1 steps with 3815 atoms
run 1 pre no post no
Step TotEng KinEng Temp PotEng E_bond E_angle E_dihed E_impro E_vdwl E_coul E_long Press 
      67   -17139.517     387.8834     68.88663     -17527.4    2406.4412    275.11453   -912.39447            0   -19296.562            0            0   -88.880342 
      68   -17131.936    339.01579    60.207925   -17470.952    2465.0705    281.05149   -914.50727            0   -19302.566            0            0   -84.403798 
Loop time of 0.0324109 on 1 procs for 1 steps with 3815 atoms
run 1 pre no post no
Step TotEng KinEng Temp PotEng E_bond E_angle E_dihed E_impro E_vdwl E_coul E_long Press 
      68   -17131.936    339.01579    60.207925   -17470.952    2465.0705    281.05149   -914.50727            0   -19302.566            0            0   -84.403798 
      69   -17124.965    377.65344    67.069828   -17502.619    2437.2448    283.65665   -915.80923            0   -19307.711            0            0   -84.155178 
Loop time of 0.0323989 on 1 procs for 1 steps with 3815 atoms
run 1 pre no post no
Step TotEng KinEng Temp PotEng E_bond E_angle E_dihed E_impro E_vdwl E_coul E_long Press 
      69   -17124.965    377.65344    67.069828   -17502.619    2437.2448    283.65665   -915.80923            0   -19307.711            0            0   -84.155178 
      70   -17116.984    493.48338    87.640788   -17610.467    2335.4263    282.83065   -916.27972            0   -19312.445            0            0   -88.600252 
Loop time of 0.032378 on 1 procs for 1 steps with 3815 atoms
run 1 pre no post no
Step TotEng KinEng Temp PotEng E_bond E_angle E_dihed E_impro E_vdwl E_coul E_long Press 
      70   -17116.984    493.48338    87.640788   -17610.467    2335.4263    282.83065   -916.27972            0   -19312.445            0            0   -88.600252 
      71   -17106.157     667.3044    118.51074   -17773.462     2180.163    278.59877   -915.83587            0   -19316.388            0            0   -97.646824 
Loop time of 0.03246 on 1 procs for 1 steps with 3815 atoms
run 1 pre no post no
Step TotEng KinEng Temp PotEng E_bond E_angle E_dihed E_impro E_vdwl E_coul E_long Press 
      71   -17106.157     667.3044    118.51074   -17773.462     2180.163    278.59877   -915.83587            0   -19316.388            0            0   -97.646824 
      72   -17091.948    873.67908    155.16211   -17965.627    1997.1578    271.13205   -914.33895            0   -19319.578            0            0   -110.61107 
Loop time of 0.0324571 on 1 procs for 1 steps with 3815 atoms
run 1 pre no post no
Step TotEng KinEng Temp PotEng E_bond E_angle E_dihed E_impro E_vdwl E_coul E_long Press 
      72   -17091.948    873.67908    155.16211   -17965.627    1997.1578    271.13205   -914.33895            0   -19319.578            0            0   -110.61107 
      73   -17074.172    1082.2938     192.2113   -18156.466    1816.2627    260.77031   -911.60642            0   -19321.893            0            0   -126.60933 
Loop time of 0.0324631 on 1 procs for 1 steps with 3815 atoms
run 1 pre no post no
Step TotEng KinEng Temp PotEng E_bond E_angle E_dihed E_impro E_vdwl E_coul E_long Press 
      73   -17074.172    1082.2938     192.2113   -18156.466    1816.2627    260.77031   -911.60642            0   -19321.893            0            0   -126.60933 
      74   -17052.212    1265.1379    224.68371    -18317.35    1665.2926     248.0592   -907.42893            0   -19323.272            0            0   -145.49236 
Loop time of 0.03246 on 1 procs for 1 steps with 3815 atoms
run 1 pre no post no
Step TotEng KinEng Temp PotEng E_bond E_angle E_dihed E_impro E_vdwl E_coul E_long Press 
      74   -17052.212    1265.1379    224.68371    -18317.35    1665.2926     248.0592   -907.42893            0   -19323.272            0            0   -145.49236 
      75   -17025.271    1418.3985    251.90223   -18443.669    1547.7127    233.80002   -901.59175            0    -19323.59            0            0   -168.49476 
Loop time of 0.032377 on 1 procs for 1 steps with 3815 atoms
run 1 pre no post no
Step TotEng KinEng Temp PotEng E_bond E_angle E_dihed E_impro E_vdwl E_coul E_long Press 
      75   -17025.271    1418.3985    251.90223   -18443.669    1547.7127    233.80002   -901.59175            0    -19323.59            0            0   -168.49476 
      76   -16996.692     1578.668    280.36548    -18575.36    1421.9434    219.05165   -893.89793            0   -19322.457            0            0   -197.49493 
Loop time of 0.032439 on 1 procs for 1 steps with 3815 atoms
run 1 pre no post no
Step TotEng KinEng Temp PotEng E_bond E_angle E_dihed E_impro E_vdwl E_coul E_long Press 
      76   -16996.692     1578.668    280.36548    -18575.36    1421.9434    219.05165   -893.89793            0   -19322.457            0            0   -197.49493 
      77   -16972.317    1780.6796    316.24199   -18752.996    1246.2169    204.95959   -884.18345            0    -19319.99            0            0   -233.39181 
Loop time of 0.032445 on 1 procs for 1 steps with 3815 atoms
run 1 pre no post no
Step TotEng KinEng Temp PotEng E_bond E_angle E_dihed E_impro E_vdwl E_coul E_long Press 
      77   -16972.317    1780.6796    316.24199   -18752.996    1246.2169    204.95959   -884.18345            0    -19319.99            0            0   -233.39181 
      78   -16949.507    1998.4269    354.91308   -18947.934    1048.1453    192.41995   -872.31625            0   -19316.183            0            0   -275.09118 
Loop time of 0.0324731 on 1 procs for 1 steps with 3815 atoms
run 1 pre no post no
Step TotEng KinEng Temp PotEng E_bond E_angle E_dihed E_impro E_vdwl E_coul E_long Press 
      78   -16949.507    1998.4269    354.91308   -18947.934    1048.1453    192.41995   -872.31625            0   -19316.183            0            0   -275.09118 
      79   -16924.858    2174.8506    386.24527   -19099.709     887.7357     181.8739   -858.19463            0   -19311.124            0            0   -319.88302 
Loop time of 0.0324619 on 1 procs for 1 steps with 3815 atoms
run 1 pre no post no
Step TotEng KinEng Temp PotEng E_bond E_angle E_dihed E_impro E_vdwl E_coul E_long Press 
      79   -16924.858    2174.8506    386.24527   -19099.709     887.7357     181.8739   -858.19463            0   -19311.124            0            0   -319.88302 
      80   -16900.986     2281.211    405.13447   -19182.197    791.37412     173.3988   -841.76315            0   -19305.207            0            0   -365.10611 
Loop time of 0.0324249 on 1 procs for 1 steps with 3815 atoms
run 1 pre no post no
Step TotEng KinEng Temp PotEng E_bond E_angle E_dihed E_impro E_vdwl E_coul E_long Press 
      80   -16900.986     2281.211    405.13447   -19182.197    791.37412     173.3988   -841.76315            0   -19305.207            0            0   -365.10611 
      81   -16880.673    2320.7603    412.15827   -19201.433    752.99914    166.89748   -823.03467            0   -19298.295            0            0   -409.47178 
Loop time of 0.032474 on 1 procs for 1 steps with 3815 atoms
run 1 pre no post no
Step TotEng KinEng Temp PotEng E_bond E_angle E_dihed E_impro E_vdwl E_coul E_long Press 
      81   -16880.673    2320.7603    412.15827   -19201.433    752.99914    166.89748   -823.03467            0   -19298.295            0            0   -409.47178 
      82   -16865.412    2307.3014    409.76803   -19172.713    758.11583    162.21268   -802.10339            0   -19290.938            0            0   -453.05261 
Loop time of 0.032407 on 1 procs for 1 steps with 3815 atoms
run 1 pre no post no
Step TotEng KinEng Temp PotEng E_bond E_angle E_dihed E_impro E_vdwl E_coul E_long Press 
      82   -16865.412    2307.3014    409.76803   -19172.713    758.11583    162.21268   -802.10339            0   -19290.938            0            0   -453.05261 
      83   -16854.894    2254.6568    400.41855    -19109.55    793.67022    159.16106    -779.1478            0   -19283.234            0            0   -496.19071 
Loop time of 0.0324311 on 1 procs for 1 steps with 3815 atoms
run 1 pre no post no
Step TotEng KinEng Temp PotEng E_bond E_angle E_dihed E_impro E_vdwl E_coul E_long Press 
      83   -16854.894    2254.6568    400.41855    -19109.55    793.67022    159.16106    -779.1478            0   -19283.234            0            0   -496.19071 
      84   -16848.373    2176.4585    386.53083   -19024.832    847.28945    157.53157   -754.42758            0   -19275.225            0            0   -538.69837 
Loop time of 0.032433 on 1 procs for 1 steps with 3815 atoms
run 1 pre no post no
Step TotEng KinEng Temp PotEng E_bond E_angle E_dihed E_impro E_vdwl E_coul E_long Press 
      84   -16848.373    2176.4585    386.53083   -19024.832    847.28945    157.53157   -754.42758            0   -19275.225            0            0   -538.69837 
      85   -16845.269    2086.5455    370.56262   -18931.815    906.36422     157.0779   -728.27725            0    -19266.98            0            0   -579.68647 
Loop time of 0.032434 on 1 procs for 1 steps with 3815 atoms
run 1 pre no post no
Step TotEng KinEng Temp PotEng E_bond E_angle E_dihed E_impro E_vdwl E_coul E_long Press 
      85   -16845.269    2086.5455    370.56262   -18931.815    906.36422     157.0779   -728.27725            0    -19266.98            0            0   -579.68647 
      86   -16845.413    1995.5958    354.41029   -18841.009     961.5371    157.51656   -701.09739            0   -19258.965            0            0   -618.19851 
Loop time of 0.0324719 on 1 procs for 1 steps with 3815 atoms
run 1 pre no post no
Step TotEng KinEng Temp PotEng E_bond E_angle E_dihed E_impro E_vdwl E_coul E_long Press 
      86   -16845.413    1995.5958    354.41029   -18841.009     961.5371    157.51656   -701.09739            0   -19258.965            0            0   -618.19851 
      87   -16847.681    1907.5535     338.7743   -18755.235    1010.6161    158.53495   -673.34284            0   -19251.043            0            0   -653.77575 
Loop time of 0.032501 on 1 procs for 1 steps with 3815 atoms
run 1 pre no post no
Step TotEng KinEng Temp PotEng E_bond E_angle E_dihed E_impro E_vdwl E_coul E_long Press 
      87   -16847.681    1907.5535     338.7743   -18755.235    1010.6161    158.53495   -673.34284            0   -19251.043            0            0   -653.77575 
      88   -16851.131    1820.9957    323.40197   -18672.126     1056.947    159.81013   -645.50702            0   -19243.376            0            0   -686.40831 
Loop time of 0.032588 on 1 procs for 1 steps with 3815 atoms
