LAMMPS Description

     13  atoms
     12  bonds
     11  angles
     10  dihedrals
     0  impropers

     3  atom types
     2  bond types
     2  angle types
     2  dihedral types

  -50. 50. xlo xhi
  -50. 50. ylo yhi
  -50. 50. zlo zhi

Masses

		1	14.02658
		2	15.03452
		3		32.065

Atoms

1 1 3 0. -6.135 0.259 0.0
2 1 1 0. -5.117 -0.303 0.0
3 1 1 0. -4.093 0.259 0.0
4 1 1 0. -3.069 -0.303 0.0
5 1 1 0. -2.041 0.259 0.0
6 1 1 0. -1.017 -0.303 0.0
7 1 1 0. 0.003 0.259 0.0
8 1 1 0. 1.021 -0.303 0.0
9 1 1 0. 2.041 0.259 0.0
10 1 1 0. 3.066 -0.303 0.0
11 1 1 0. 4.09 0.259 0.0
12 1 1 0. 5.114 -0.303 0.0
13 1 2 0. 6.141 0.259 0.0

Bonds

1 1 1 2
2 2 2 3
3 2 3 4
4 2 4 5
5 2 5 6
6 2 6 7
7 2 7 8
8 2 8 9
9 2 9 10
10 2 10 11
11 2 11 12
12 2 12 13

Angles

1 1 1 2 3
2 2 11 12 13
3 2 2 3 4
4 2 3 4 5
5 2 4 5 6
6 2 5 6 7
7 2 6 7 8
8 2 7 8 9
9 2 8 9 10
10 2 9 10 11
11 2 10 11 12

Dihedrals

1 1 1 2 3 4
2 2 10 11 12 13
3 2 2 3 4 5
4 2 3 4 5 6
5 2 4 5 6 7
6 2 5 6 7 8
7 2 6 7 8 9
8 2 7 8 9 10
9 2 8 9 10 11
10 2 9 10 11 12

