LAMMPS data file via write_data, version 15 May 2015, timestep = 0

4299 atoms
6 atom types
1648 bonds
5 bond types
1442 angles
5 angle types
1236 dihedrals
5 dihedral types

-1.0081000000000000e+02 1.5081000000000000e+02 xlo xhi
-1.0050749999999999e+02 1.5050749999999999e+02 ylo yhi
-1.0004550000000000e+02 1.5004550000000000e+02 zlo zhi

Masses

1 107.868
2 12.0112
3 12.0112
4 32.064
5 15.9994
6 1.00797

Bond Coeffs # class2

1 1.53 299.67 -501.77 679.81
2 1.53 299.67 -501.77 679.81
3 1.823 225.277 -327.706 488.972
4 1.42 400.395 -835.195 1313.01
5 0.965 532.506 -1282.9 2004.77

Angle Coeffs # class2

1 112.67 39.516 -7.443 -9.5583
2 112.67 39.516 -7.443 -9.5583
3 112.564 47.0276 -10.679 -10.1687
4 105.8 52.7061 -12.109 -9.8681
5 111.27 54.5381 -8.3642 -13.0838

BondBond Coeffs

1 0 1.53 1.53
2 0 1.53 1.53
3 10.9186 1.53 1.823
4 -9.6879 1.42 0.965
5 11.4318 1.53 1.42

BondAngle Coeffs

1 8.016 8.016 1.53 1.53
2 8.016 8.016 1.53 1.53
3 -3.5621 22.3865 1.53 1.823
4 28.58 18.9277 1.42 0.965
5 2.6868 20.4033 1.53 1.42

Dihedral Coeffs # class2

1 0 0 0.0514 0 -0.143 0
2 0 0 0.0514 0 -0.143 0
3 -0.7017 0 0.0201 0 0.104 0
4 0 0 0 0 0.158 0
5 -0.6732 0 -0.4778 0 -0.167 0

AngleAngleTorsion Coeffs

1 -22.045 112.67 112.67
2 -22.045 112.67 112.67
3 -26.71 112.564 112.67
4 0 112.564 111.27
5 -12.1038 105.8 111.27

EndBondTorsion Coeffs

1 -0.0732 0 0 -0.0732 0 0 1.53 1.53
2 -0.0732 0 0 -0.0732 0 0 1.53 1.53
3 -0.7991 -0.959 0.5855 -0.1586 -0.7244 -0.2608 1.823 1.53
4 0 0 0 0 0 0 1.823 1.42
5 0 0.5343 0.9025 -0.58 0.9004 0 0.965 1.53

MiddleBondTorsion Coeffs

1 -17.787 -7.1877 0 1.53
2 -17.787 -7.1877 0 1.53
3 -4.2593 -5.6468 -3.3835 1.53
4 0 0 0 1.53
5 1.2472 0 0.7485 1.42

BondBond13 Coeffs

1 0 1.53 1.53
2 0 1.53 1.53
3 0 1.823 1.53
4 0 1.823 1.42
5 0 0.965 1.53

AngleTorsion Coeffs

1 0.3886 -0.3139 0.1389 0.3886 -0.3139 0.1389 112.67 112.67
2 0.3886 -0.3139 0.1389 0.3886 -0.3139 0.1389 112.67 112.67
3 1.1179 0.3638 0.9423 -2.0927 -0.1498 -1.7848 112.564 112.67
4 0 0 0 0 0 0 112.564 111.27
5 0.8726 -0.3577 0.3888 -3.5903 2.5225 0.4888 105.8 111.27

Atoms # full

4192 2640 3 0.0000000000000000e+00 6.0206795931863432e+01 5.1702239932991645e+01 3.0876531192321284e+01 0 0 0
4195 2640 2 0.0000000000000000e+00 6.0065994818455081e+01 5.3103623799866988e+01 3.1474779614140900e+01 0 0 0
4264 2648 3 0.0000000000000000e+00 6.9380151209759177e+01 5.7940874135887789e+01 3.0429434736737157e+01 0 0 0
4148 2636 3 0.0000000000000000e+00 5.4678010603884445e+01 6.1160093638412512e+01 2.8308570960950590e+01 0 0 0
4151 2636 2 0.0000000000000000e+00 5.4985636180588592e+01 5.9977670227237773e+01 2.9229898403607852e+01 0 0 0
4153 2636 2 0.0000000000000000e+00 5.3226168742910978e+01 5.8994725763447967e+01 3.0704349007820262e+01 0 0 0
4149 2636 2 0.0000000000000000e+00 5.4222581677931771e+01 6.0143858656132814e+01 3.0544971172501164e+01 0 0 0
4180 2639 2 0.0000000000000000e+00 5.5395053664494107e+01 4.4365795933364197e+01 3.6523874352917908e+01 0 0 0
4182 2639 2 0.0000000000000000e+00 5.6150993520002046e+01 4.3675891558381167e+01 3.7660480726888451e+01 0 0 0
4179 2639 3 0.0000000000000000e+00 5.7644977474638807e+01 4.3984588461141840e+01 3.7540810250768367e+01 0 0 0
2801 2488 2 0.0000000000000000e+00 6.4311609079981935e+01 4.2871402938509640e+01 3.4842643068722630e+01 0 0 0
2807 2488 2 0.0000000000000000e+00 6.2527993392378143e+01 4.4722773665626569e+01 3.5146522367423060e+01 0 0 0
2805 2488 2 0.0000000000000000e+00 6.4639884767724212e+01 4.4084974267385590e+01 3.3971881270240232e+01 0 0 0
2803 2488 2 0.0000000000000000e+00 6.5497932145332271e+01 4.2565648545550488e+01 3.5758306222114264e+01 0 0 0
2800 2488 3 0.0000000000000000e+00 6.5129398106565660e+01 4.2910027482661860e+01 3.7203016804015071e+01 0 0 0
4181 2639 2 0.0000000000000000e+00 5.4776332099107059e+01 4.6722550605743017e+01 3.5971445175830645e+01 0 0 0
4184 2639 2 0.0000000000000000e+00 5.4732892488806407e+01 4.5639179130687694e+01 3.7051874589186006e+01 0 0 0
4185 2639 2 0.0000000000000000e+00 5.7491664526059161e+01 4.9679134885643016e+01 3.6768178560605364e+01 0 0 0
4183 2639 2 0.0000000000000000e+00 5.5187432856489103e+01 4.8834540589015646e+01 3.7240607548275420e+01 0 0 0
4186 2639 2 0.0000000000000000e+00 5.4133317563475273e+01 4.8003628541240097e+01 3.6507316188582287e+01 0 0 0
4188 2639 2 0.0000000000000000e+00 5.6067946728860704e+01 4.9556660960081942e+01 3.6218203993560238e+01 0 0 0
2957 2505 3 0.0000000000000000e+00 5.2333361092185754e+01 4.8832155837148449e+01 3.2183547952304792e+01 0 0 0
2958 2505 2 0.0000000000000000e+00 5.2638611326536292e+01 5.1126093974482920e+01 3.3124985708781068e+01 0 0 0
2960 2505 2 0.0000000000000000e+00 5.2127064263853171e+01 4.9714516159100825e+01 3.3416627334225041e+01 0 0 0
4187 2639 2 0.0000000000000000e+00 5.9728480063733663e+01 5.0674527145402685e+01 3.6265679326034153e+01 0 0 0
4191 2639 2 0.0000000000000000e+00 5.9475861438195267e+01 5.1077738886301191e+01 3.7719169518519863e+01 0 0 0
4190 2639 2 0.0000000000000000e+00 5.8431261434541504e+01 5.0141191791058723e+01 3.5652137721030378e+01 0 0 0
2806 2488 2 0.0000000000000000e+00 6.1889964514862129e+01 4.5975324366504687e+01 3.7779578285648284e+01 0 0 0
2804 2488 2 0.0000000000000000e+00 6.1496730460628171e+01 4.5839608953286685e+01 3.5315240533670490e+01 0 0 0
2809 2488 2 0.0000000000000000e+00 6.1923306671230534e+01 4.6757068616276591e+01 3.6463444363521745e+01 0 0 0
2802 2488 2 0.0000000000000000e+00 6.3728477931812606e+01 4.5252213194532928e+01 3.4358920472040076e+01 0 0 0
3486 2563 2 0.0000000000000000e+00 6.4406681632581467e+01 4.9661079873174103e+01 3.6287162789839662e+01 0 0 0
3481 2563 2 0.0000000000000000e+00 6.4596912722500392e+01 5.0485707562373143e+01 3.5012177543130335e+01 0 0 0
3927 2611 3 0.0000000000000000e+00 7.1136723702881341e+01 4.5759685234842394e+01 3.7000105833436940e+01 0 0 0
3930 2611 2 0.0000000000000000e+00 7.0334958731673169e+01 4.6770109231473086e+01 3.7823403560496047e+01 0 0 0
3483 2563 2 0.0000000000000000e+00 6.5203084362307820e+01 4.8360053198003335e+01 3.6175976516588868e+01 0 0 0
3484 2563 2 0.0000000000000000e+00 6.6049104233876449e+01 5.0371078468201553e+01 3.4542168537856419e+01 0 0 0
3480 2563 2 0.0000000000000000e+00 6.6149441152035138e+01 5.0817795149479096e+01 3.3083017033239862e+01 0 0 0
3488 2563 2 0.0000000000000000e+00 6.6088891074376235e+01 4.8198190533820878e+01 3.7413400657584390e+01 0 0 0
3479 2563 3 0.0000000000000000e+00 6.8309414403588264e+01 5.0969525038489294e+01 3.1836771265658300e+01 0 0 0
4166 2638 3 0.0000000000000000e+00 7.7674966131257904e+01 5.0036573440588143e+01 3.8082004953091257e+01 0 0 0
3934 2611 2 0.0000000000000000e+00 7.2860991150958100e+01 5.0929390811416603e+01 3.6984445768992067e+01 0 0 0
3929 2611 2 0.0000000000000000e+00 7.2895188473285799e+01 4.9643873497927238e+01 3.7813940715197582e+01 0 0 0
3932 2611 2 0.0000000000000000e+00 7.1880806336970409e+01 4.8645714252354303e+01 3.7250366875002392e+01 0 0 0
3593 2573 3 0.0000000000000000e+00 4.9878957331645722e+01 5.5234521057931161e+01 3.3154267079990014e+01 0 0 0
3596 2573 2 0.0000000000000000e+00 4.8474277337758494e+01 5.5531226109066409e+01 3.3683835851956047e+01 0 0 0
3594 2573 2 0.0000000000000000e+00 4.7932037998354346e+01 5.6793641338942571e+01 3.3011845176152079e+01 0 0 0
2961 2505 2 0.0000000000000000e+00 5.0726461357465531e+01 5.2971825880945239e+01 3.6496958669161906e+01 0 0 0
2966 2505 2 0.0000000000000000e+00 5.0241454841246828e+01 5.3252564607083954e+01 3.7921046433882260e+01 0 0 0
3598 2573 2 0.0000000000000000e+00 4.8360631124525199e+01 5.8022360464451282e+01 3.3815153139843240e+01 0 0 0
4194 2640 2 0.0000000000000000e+00 5.6927107992768121e+01 5.4504445751965925e+01 3.3181804051930314e+01 0 0 0
4204 2640 2 0.0000000000000000e+00 5.6388801370059852e+01 5.3973808596151365e+01 3.8051977432736464e+01 0 0 0
4201 2640 2 0.0000000000000000e+00 5.4853163610210089e+01 5.6579266059805441e+01 3.5125214485888748e+01 0 0 0
4198 2640 2 0.0000000000000000e+00 5.5677654611382643e+01 5.5803868478141005e+01 3.6156435823166049e+01 0 0 0
4203 2640 2 0.0000000000000000e+00 5.5121771128599562e+01 5.6069248908600734e+01 3.7557311574308244e+01 0 0 0
4199 2640 2 0.0000000000000000e+00 5.6339596703127725e+01 5.5916621074044905e+01 3.3230563103423158e+01 0 0 0
4196 2640 2 0.0000000000000000e+00 5.4912644476780279e+01 5.5856125241786749e+01 3.3777772119259055e+01 0 0 0
2962 2505 2 0.0000000000000000e+00 5.1941891610613112e+01 5.2122137579681315e+01 3.4053007907211395e+01 0 0 0
2959 2505 2 0.0000000000000000e+00 5.2824816726980195e+01 5.2384037665947226e+01 3.5275611702406891e+01 0 0 0
2964 2505 2 0.0000000000000000e+00 5.2013336233493803e+01 5.2147021814552090e+01 3.6551193524682724e+01 0 0 0
4197 2640 2 0.0000000000000000e+00 5.8281695112760296e+01 5.4539544463466349e+01 3.2469926058724980e+01 0 0 0
4193 2640 2 0.0000000000000000e+00 5.8876037011380930e+01 5.3130891505487845e+01 3.2435271177029811e+01 0 0 0
4276 2648 2 0.0000000000000000e+00 6.0754737172528358e+01 5.5298234999507947e+01 3.5749607883804750e+01 0 0 0
4274 2648 4 0.0000000000000000e+00 6.0312399050000003e+01 5.6703886070000003e+01 3.6807444930000003e+01 0 0 0
4272 2648 2 0.0000000000000000e+00 6.1966734240193261e+01 5.5668481321039856e+01 3.4893447626457373e+01 0 0 0
4270 2648 2 0.0000000000000000e+00 6.4088637228325808e+01 5.4705828731740340e+01 3.5797595113491816e+01 0 0 0
4275 2648 2 0.0000000000000000e+00 6.2926931443719454e+01 5.4477945698879736e+01 3.4827855429133393e+01 0 0 0
4271 2648 2 0.0000000000000000e+00 6.7759926889990680e+01 5.5272955365474793e+01 3.5092226517107235e+01 0 0 0
4273 2648 2 0.0000000000000000e+00 6.5263540926271830e+01 5.5338094350142235e+01 3.5046405549475423e+01 0 0 0
4268 2648 2 0.0000000000000000e+00 6.6497364131170741e+01 5.5354141560267621e+01 3.5951664807518235e+01 0 0 0
4265 2648 2 0.0000000000000000e+00 6.7706858040850534e+01 5.7807491377861723e+01 3.2279822250491989e+01 0 0 0
4266 2648 2 0.0000000000000000e+00 6.7442429852673314e+01 5.5750827924541895e+01 3.3673558281205196e+01 0 0 0
4269 2648 2 0.0000000000000000e+00 6.8391157194845150e+01 5.6890688809041166e+01 3.3294688828598794e+01 0 0 0
3482 2563 2 0.0000000000000000e+00 6.7423869437927095e+01 5.1640836736045330e+01 3.2888794821852997e+01 0 0 0
2839 2492 2 0.0000000000000000e+00 7.2931820835090477e+01 5.3069695012003237e+01 3.3326925500152797e+01 0 0 0
2845 2492 2 0.0000000000000000e+00 7.6392447339529596e+01 5.6187861218671706e+01 3.7522252216071038e+01 0 0 0
2843 2492 2 0.0000000000000000e+00 7.5462070069820044e+01 5.4344384450596863e+01 3.6117162514947665e+01 0 0 0
2840 2492 2 0.0000000000000000e+00 7.6685645094378927e+01 5.4819834140235535e+01 3.6902084062368068e+01 0 0 0
2838 2492 2 0.0000000000000000e+00 7.5490083572019103e+01 5.4951295517748711e+01 3.4712648252810894e+01 0 0 0
2841 2492 2 0.0000000000000000e+00 7.4057389028507870e+01 5.5120285263248057e+01 3.4201045601055903e+01 0 0 0
2836 2492 3 0.0000000000000000e+00 7.2332768845373494e+01 5.2480270615121178e+01 3.2048129791918100e+01 0 0 0
2837 2492 2 0.0000000000000000e+00 7.3849143053675064e+01 5.4239769906067949e+01 3.2968133285989893e+01 0 0 0
3931 2611 2 0.0000000000000000e+00 7.1921173050207159e+01 5.1938122958143751e+01 3.7646632662981226e+01 0 0 0
3537 2568 2 0.0000000000000000e+00 8.1557006215297065e+01 5.8022034174508804e+01 3.7544253407005250e+01 0 0 0
3597 2573 2 0.0000000000000000e+00 4.6729868065450212e+01 5.9900697951741151e+01 3.6571602071718928e+01 0 0 0
3600 2573 2 0.0000000000000000e+00 4.7180092950136228e+01 5.8579390479415970e+01 3.5946514693887067e+01 0 0 0
3595 2573 2 0.0000000000000000e+00 4.7124974967761126e+01 5.8692102650747259e+01 3.4421377304329717e+01 0 0 0
4160 2636 2 0.0000000000000000e+00 4.9766424680012243e+01 6.2698255923049352e+01 3.7612227941521795e+01 0 0 0
4156 2636 2 0.0000000000000000e+00 5.0225617692958522e+01 6.2812670421489543e+01 3.6157896226370156e+01 0 0 0
4154 2636 2 0.0000000000000000e+00 5.0815685872324941e+01 6.1295976378241598e+01 3.4261026776940071e+01 0 0 0
4159 2636 2 0.0000000000000000e+00 4.9819233765327283e+01 6.1549458769540749e+01 3.5394479900709783e+01 0 0 0
3599 2573 2 0.0000000000000000e+00 4.5830691939801184e+01 5.8141985312957281e+01 3.8102753415216355e+01 0 0 0
3602 2573 2 0.0000000000000000e+00 4.6145612853374637e+01 5.9633652358104030e+01 3.7960631961886747e+01 0 0 0
4261 2647 4 0.0000000000000000e+00 5.6599321770000003e+01 6.1043329620000002e+01 3.6807444930000003e+01 0 0 0
4263 2647 2 0.0000000000000000e+00 5.6410343518975886e+01 6.2287132635459891e+01 3.5500624965491284e+01 0 0 0
4259 2647 2 0.0000000000000000e+00 5.6723061478591120e+01 6.1651360266021818e+01 3.4145253946903289e+01 0 0 0
4262 2647 2 0.0000000000000000e+00 5.7261100696654658e+01 6.0234197637236761e+01 3.4359309853993793e+01 0 0 0
4257 2647 2 0.0000000000000000e+00 5.7817885250863931e+01 5.9695461515413740e+01 3.3039597597720935e+01 0 0 0
4157 2636 2 0.0000000000000000e+00 5.2233183452101869e+01 6.1221768660871113e+01 3.4835167959568437e+01 0 0 0
4155 2636 2 0.0000000000000000e+00 5.3387715018629514e+01 6.0004363590942980e+01 3.2984960585486633e+01 0 0 0
4150 2636 2 0.0000000000000000e+00 5.2928614446616265e+01 5.8779785462430368e+01 3.2190340450897459e+01 0 0 0
4152 2636 2 0.0000000000000000e+00 5.2880512071534582e+01 5.9897415842222195e+01 3.4423917657828852e+01 0 0 0
4251 2647 3 0.0000000000000000e+00 6.3270276918964882e+01 6.3227323138195743e+01 3.2020252770063053e+01 0 0 0
4258 2647 2 0.0000000000000000e+00 6.1450043777059818e+01 5.8563426659292737e+01 3.2450293380548644e+01 0 0 0
4253 2647 2 0.0000000000000000e+00 6.1870202326285792e+01 6.0034847308473068e+01 3.2463489087643367e+01 0 0 0
4255 2647 2 0.0000000000000000e+00 5.9923896902510720e+01 5.8469064616478484e+01 3.2485812561778289e+01 0 0 0
4252 2647 2 0.0000000000000000e+00 6.3553684314687629e+01 6.1402783386889467e+01 3.3703217379921405e+01 0 0 0
4260 2647 2 0.0000000000000000e+00 5.9347345976614626e+01 5.9762489003062427e+01 3.3066083123174700e+01 0 0 0
4256 2647 2 0.0000000000000000e+00 6.3343525660205984e+01 6.0141314367028585e+01 3.2864602048135247e+01 0 0 0
4254 2647 2 0.0000000000000000e+00 6.4284068456014566e+01 6.2454598669720276e+01 3.2866849755761677e+01 0 0 0
3386 2550 2 0.0000000000000000e+00 6.7150857219433576e+01 5.9498921685774462e+01 3.7460713692657471e+01 0 0 0
3380 2550 2 0.0000000000000000e+00 6.8380372443022594e+01 6.2587193795775988e+01 3.5517667455648791e+01 0 0 0
3383 2550 2 0.0000000000000000e+00 6.7703296263221461e+01 6.2441239512156415e+01 3.4152123805237032e+01 0 0 0
3378 2550 2 0.0000000000000000e+00 6.7615857067317478e+01 6.3812322741062225e+01 3.3477915614949971e+01 0 0 0
3381 2550 2 0.0000000000000000e+00 6.9026622838233081e+01 6.4330771423697982e+01 3.3194647183038292e+01 0 0 0
3384 2550 4 0.0000000000000000e+00 6.5518843689999997e+01 5.9051362869999998e+01 3.6807444930000003e+01 0 0 0
3385 2550 2 0.0000000000000000e+00 6.7599515259589737e+01 6.1786276495399491e+01 3.6562023536107496e+01 0 0 0
3382 2550 2 0.0000000000000000e+00 6.7918666048519142e+01 6.0297158986684451e+01 3.6406049559192518e+01 0 0 0
4267 2648 2 0.0000000000000000e+00 6.8755452008077100e+01 5.8693892863600496e+01 3.1606004572828109e+01 0 0 0
4087 2630 2 0.0000000000000000e+00 7.3172842120136210e+01 5.8956863547892681e+01 3.3659161020496484e+01 0 0 0
4086 2630 3 0.0000000000000000e+00 7.1550229901084975e+01 6.0856492231704976e+01 3.3645917173424486e+01 0 0 0
4093 2630 2 0.0000000000000000e+00 7.6660238858820165e+01 5.9482406324338378e+01 3.5198118533377645e+01 0 0 0
4095 2630 2 0.0000000000000000e+00 7.7231978790483481e+01 6.1371537000339160e+01 3.6728668847831187e+01 0 0 0
4090 2630 2 0.0000000000000000e+00 7.6350533695529904e+01 6.0936925117579861e+01 3.5555536889854274e+01 0 0 0
4088 2630 2 0.0000000000000000e+00 7.5608833417789057e+01 5.8964302539200716e+01 3.4214298861333134e+01 0 0 0
4092 2630 2 0.0000000000000000e+00 7.6502463339187017e+01 6.2442088876921183e+01 3.7544861334929465e+01 0 0 0
4097 2630 2 0.0000000000000000e+00 7.5082439350653331e+01 6.1965035606479390e+01 3.7857652180415457e+01 0 0 0
3549 2569 3 0.0000000000000000e+00 7.3667901157116816e+01 6.4043121380883150e+01 3.4364943253102012e+01 0 0 0
4091 2630 2 0.0000000000000000e+00 7.4212765388707368e+01 5.9350333514192222e+01 3.4709155030979161e+01 0 0 0
4089 2630 2 0.0000000000000000e+00 7.1788227118355508e+01 5.9419589094916965e+01 3.4115246027865581e+01 0 0 0
3539 2568 2 0.0000000000000000e+00 8.1625799837947923e+01 5.9536681954621173e+01 3.7343264117349825e+01 0 0 0
3536 2568 3 0.0000000000000000e+00 8.3074835943893078e+01 5.9950895958463704e+01 3.7078077389595535e+01 0 0 0
4016 2621 2 0.0000000000000000e+00 4.3676218882174439e+01 6.6435881645622445e+01 3.7662261184200275e+01 0 0 0
4013 2621 2 0.0000000000000000e+00 4.2555851063524301e+01 6.5403391032928724e+01 3.7796534078244505e+01 0 0 0
4012 2621 2 0.0000000000000000e+00 4.8656637007273090e+01 6.6572522964066167e+01 3.7289257440547466e+01 0 0 0
4014 2621 2 0.0000000000000000e+00 4.6168456761563128e+01 6.6522018338912190e+01 3.7494971819530939e+01 0 0 0
4010 2621 2 0.0000000000000000e+00 4.7475152693041530e+01 6.5902414667467923e+01 3.7992348371064168e+01 0 0 0
4009 2621 3 0.0000000000000000e+00 4.8397190821421745e+01 6.6612766802289798e+01 3.5781719386871266e+01 0 0 0
3982 2617 2 0.0000000000000000e+00 5.7611439298304703e+01 7.0018523864299780e+01 3.7767336854536637e+01 0 0 0
3983 2617 2 0.0000000000000000e+00 5.7253730711067178e+01 7.0401776434466228e+01 3.6338024151947650e+01 0 0 0
2491 2451 4 0.0000000000000000e+00 5.9073843519999997e+01 6.5531160369999995e+01 3.6807444930000003e+01 0 0 0
2487 2451 5 -6.8500000000000005e-01 6.2035437656438290e+01 6.8197139046235520e+01 3.6908799266462069e+01 0 0 0
2490 2451 6 4.0000000000000002e-01 6.2967371822821697e+01 6.7937276759397122e+01 3.6813331093404400e+01 0 0 0
2489 2451 2 0.0000000000000000e+00 6.1251733883297412e+01 6.7156415513958677e+01 3.6330739157600718e+01 0 0 0
2488 2451 2 0.0000000000000000e+00 6.0542855593568738e+01 6.6390884046217735e+01 3.7439443764963997e+01 0 0 0
3633 2577 4 0.0000000000000000e+00 6.4725279270000001e+01 6.4707153590000004e+01 3.6807444930000003e+01 0 0 0
3632 2577 6 4.0000000000000002e-01 6.3716281383659499e+01 6.7546706765325013e+01 3.6573711632434375e+01 0 0 0
3629 2577 5 -6.8500000000000005e-01 6.4592763967922110e+01 6.7334005581251375e+01 3.6210833772317280e+01 0 0 0
3981 2617 5 -6.8500000000000005e-01 5.8418859366081229e+01 7.0893360062109494e+01 3.5680550711490042e+01 0 0 0
3374 2550 3 0.0000000000000000e+00 6.5186151867327752e+01 6.8044625810947394e+01 3.1901461582679168e+01 0 0 0
3375 2550 2 0.0000000000000000e+00 6.7562082907672703e+01 6.7420363217272723e+01 3.2356305329073024e+01 0 0 0
3376 2550 2 0.0000000000000000e+00 6.9094867290913555e+01 6.5825095413723147e+01 3.3517330581675587e+01 0 0 0
3379 2550 2 0.0000000000000000e+00 6.7682685122082773e+01 6.6415379940815313e+01 3.3502695373993930e+01 0 0 0
3377 2550 2 0.0000000000000000e+00 6.6452010954535510e+01 6.8423670982274743e+01 3.2673166435928614e+01 0 0 0
3630 2577 2 0.0000000000000000e+00 6.5869941762701032e+01 6.5861791971733226e+01 3.7615592068540899e+01 0 0 0
3631 2577 2 0.0000000000000000e+00 6.5502148209652049e+01 6.7306739993591037e+01 3.7307978904741105e+01 0 0 0
3550 2569 2 0.0000000000000000e+00 7.6013148216375001e+01 6.4884778354543442e+01 3.4183106197806424e+01 0 0 0
3552 2569 2 0.0000000000000000e+00 7.4677638132394918e+01 6.5056292187100766e+01 3.4908559854819920e+01 0 0 0
3554 2569 2 0.0000000000000000e+00 7.7050463580230272e+01 6.5826375130751217e+01 3.4796391426278078e+01 0 0 0
3553 2569 2 0.0000000000000000e+00 7.6530866726195853e+01 6.8384483006915971e+01 3.7627185578542957e+01 0 0 0
3556 2569 2 0.0000000000000000e+00 7.7070877724088817e+01 6.7810171344923901e+01 3.6316519965263353e+01 0 0 0
3551 2569 2 0.0000000000000000e+00 7.6504696673300671e+01 6.6404382883140428e+01 3.6104425829249209e+01 0 0 0
2816 2489 6 4.0000000000000002e-01 7.3371783926984648e+01 7.0447979718949526e+01 3.7743632052642909e+01 0 0 0
3086 2517 2 0.0000000000000000e+00 8.0818288067998552e+01 6.5974563526594039e+01 3.7283540839906308e+01 0 0 0
3081 2517 3 0.0000000000000000e+00 8.2460449012221162e+01 6.6328088345274011e+01 3.5274535536969758e+01 0 0 0
3084 2517 2 0.0000000000000000e+00 8.1712608143925749e+01 6.7615661355001620e+01 3.5627370698766086e+01 0 0 0
3082 2517 2 0.0000000000000000e+00 8.1044488953636588e+01 6.7459116856681234e+01 3.6994264153742634e+01 0 0 0
3984 2617 6 4.0000000000000002e-01 5.8146869094618637e+01 7.1671033138913330e+01 3.5164421136476037e+01 0 0 0
2714 2477 2 0.0000000000000000e+00 8.1633437777815459e+01 7.1380066034689932e+01 3.7807148257154630e+01 0 0 0
2713 2477 3 0.0000000000000000e+00 8.3891242517933733e+01 7.2367223541722865e+01 3.7395477578522929e+01 0 0 0
2716 2477 2 0.0000000000000000e+00 8.2668819693449024e+01 7.1725381019430742e+01 3.6735687093321189e+01 0 0 0
2903 2499 3 0.0000000000000000e+00 5.1702190766251945e+01 3.7728059068903363e+01 4.4176076489995573e+01 0 0 0
3906 2608 2 0.0000000000000000e+00 6.3938756000363426e+01 4.3375804371549066e+01 4.4271078052579540e+01 0 0 0
3904 2608 5 -6.8500000000000005e-01 6.3114048713314219e+01 4.4402239670026248e+01 4.3725423367723124e+01 0 0 0
3907 2608 6 4.0000000000000002e-01 6.2365386371104030e+01 4.4518839930658167e+01 4.4334564519574002e+01 0 0 0
4175 2638 2 0.0000000000000000e+00 7.1994400500577456e+01 4.4609471504692529e+01 4.1081829459640836e+01 0 0 0
4177 2638 2 0.0000000000000000e+00 7.1629566797568486e+01 4.4793736153934859e+01 4.3547657241545238e+01 0 0 0
2967 2505 4 0.0000000000000000e+00 4.9270041759999998e+01 5.1242516109999997e+01 4.1935742910000002e+01 0 0 0
2969 2505 2 0.0000000000000000e+00 5.0931880585509553e+01 5.0565782664106095e+01 4.1669546188019154e+01 0 0 0
2853 2493 4 0.0000000000000000e+00 5.4004136389999999e+01 4.7417128460000001e+01 4.1935742910000002e+01 0 0 0
2849 2493 5 -6.8500000000000005e-01 5.6636996609611913e+01 4.7031968235655398e+01 4.2566998660896509e+01 0 0 0
2852 2493 6 4.0000000000000002e-01 5.7170792907318152e+01 4.7430139890711139e+01 4.3275281593178555e+01 0 0 0
2850 2493 2 0.0000000000000000e+00 5.5307229554122287e+01 4.7951882459011834e+01 4.0790085806711780e+01 0 0 0
2851 2493 2 0.0000000000000000e+00 5.6672987750010165e+01 4.7932048440850686e+01 4.1462457651625556e+01 0 0 0
1 1 1 0.0000000000000000e+00 5.9326799999999999e+01 4.9478000000000002e+01 4.2748800000000003e+01 0 0 0
5 5 1 0.0000000000000000e+00 6.3276000000000003e+01 4.9396799999999999e+01 4.2660699999999999e+01 0 0 0
70 70 1 0.0000000000000000e+00 5.9324199999999998e+01 4.7432400000000001e+01 4.4668900000000001e+01 0 0 0
72 72 1 0.0000000000000000e+00 6.3346400000000003e+01 4.7481900000000003e+01 4.4714399999999998e+01 0 0 0
4189 2639 4 0.0000000000000000e+00 6.0976735830000003e+01 5.0785236949999998e+01 3.8695056710000003e+01 0 0 0
2810 2488 4 0.0000000000000000e+00 5.9835143440000003e+01 4.5672250439999999e+01 4.1935742910000002e+01 0 0 0
2812 2488 2 0.0000000000000000e+00 6.0649682798290691e+01 4.6859229701607674e+01 4.0832047734768743e+01 0 0 0
2808 2488 2 0.0000000000000000e+00 6.1924889616467084e+01 4.6233386012635343e+01 4.0265305428328368e+01 0 0 0
2811 2488 2 0.0000000000000000e+00 6.2273281085757503e+01 4.6903994883958674e+01 3.8933928996788765e+01 0 0 0
4172 2638 2 0.0000000000000000e+00 7.1009369094851507e+01 4.5042886838959447e+01 4.2171007379777635e+01 0 0 0
7 7 1 0.0000000000000000e+00 6.5265900000000002e+01 5.1289800000000000e+01 4.2867600000000003e+01 0 0 0
2676 2472 4 0.0000000000000000e+00 7.1271284140000006e+01 4.9116654480000001e+01 4.1935742910000002e+01 0 0 0
4174 2638 2 0.0000000000000000e+00 7.0717852693202801e+01 4.5376168962717820e+01 4.4630803344902560e+01 0 0 0
3928 2611 2 0.0000000000000000e+00 7.1280882654647186e+01 4.7827543507495854e+01 3.8394672181679262e+01 0 0 0
3489 2563 4 0.0000000000000000e+00 6.5892354670000003e+01 4.6268433909999999e+01 4.1935742910000002e+01 0 0 0
3491 2563 2 0.0000000000000000e+00 6.6643562782749541e+01 4.5766811453835018e+01 4.0362657276273595e+01 0 0 0
3487 2563 2 0.0000000000000000e+00 6.7033099462894896e+01 4.7012665839467665e+01 3.9565702041876264e+01 0 0 0
3490 2563 2 0.0000000000000000e+00 6.6078705791108320e+01 4.8158308058092700e+01 3.9912534390029741e+01 0 0 0
3485 2563 2 0.0000000000000000e+00 6.5284235658843144e+01 4.8555095321621295e+01 3.8666234597968597e+01 0 0 0
4170 2638 2 0.0000000000000000e+00 7.3410582114724022e+01 4.5033092406898525e+01 4.1478120400241835e+01 0 0 0
4173 2638 2 0.0000000000000000e+00 7.4120486448557955e+01 4.5633548920099358e+01 4.0263716058416122e+01 0 0 0
2673 2472 2 0.0000000000000000e+00 7.1407964437329113e+01 5.0645516196083854e+01 4.2905507895828620e+01 0 0 0
2672 2472 5 -6.8500000000000005e-01 7.3755179338793283e+01 5.0437483601188248e+01 4.3373745648589058e+01 0 0 0
2675 2472 6 4.0000000000000002e-01 7.4357788307940737e+01 5.0042383941828668e+01 4.4026357754495550e+01 0 0 0
2674 2472 2 0.0000000000000000e+00 7.2471292196237187e+01 5.0517436740706962e+01 4.3987497957445626e+01 0 0 0
4171 2638 2 0.0000000000000000e+00 7.6218930759262321e+01 4.6873329447538715e+01 3.9710425301833894e+01 0 0 0
4168 2638 2 0.0000000000000000e+00 7.5083106623436947e+01 4.6729499773907754e+01 4.0726360855731727e+01 0 0 0
4167 2638 2 0.0000000000000000e+00 7.6600266805590593e+01 4.8348342133238731e+01 3.9577508660219578e+01 0 0 0
4078 2628 2 0.0000000000000000e+00 7.6259784274883842e+01 4.8274809754571862e+01 4.4325368850475215e+01 0 0 0
4079 2628 6 4.0000000000000002e-01 7.5261872456520877e+01 4.9935853143153132e+01 4.4501889900079732e+01 0 0 0
4169 2638 2 0.0000000000000000e+00 7.7459950455374539e+01 4.8541521566598298e+01 3.8327343508214064e+01 0 0 0
3603 2573 4 0.0000000000000000e+00 4.6339772670000002e+01 5.6577191890000002e+01 4.1935742910000002e+01 0 0 0
3604 2573 2 0.0000000000000000e+00 4.5647904631418037e+01 5.7798333237144981e+01 3.9582746028456896e+01 0 0 0
2968 2505 2 0.0000000000000000e+00 5.0848806002545786e+01 5.2629514101095225e+01 4.0264184593169936e+01 0 0 0
2963 2505 2 0.0000000000000000e+00 5.1400552934530715e+01 5.3056206962001639e+01 3.8902055889144584e+01 0 0 0
2 2 1 0.0000000000000000e+00 5.7254199999999997e+01 5.1557899999999997e+01 4.2889000000000003e+01 0 0 0
8 8 1 0.0000000000000000e+00 5.5246000000000002e+01 5.3484600000000000e+01 4.2998399999999997e+01 0 0 0
9 9 1 0.0000000000000000e+00 5.3108600000000003e+01 5.5394199999999998e+01 4.3091500000000003e+01 0 0 0
12 12 1 0.0000000000000000e+00 5.7149600000000000e+01 5.5344799999999999e+01 4.2846100000000000e+01 0 0 0
20 20 1 0.0000000000000000e+00 5.5183300000000003e+01 5.7411099999999998e+01 4.2889600000000002e+01 0 0 0
4202 2640 4 0.0000000000000000e+00 5.5253251159999998e+01 5.2713843560000001e+01 3.8695056710000003e+01 0 0 0
4200 2640 2 0.0000000000000000e+00 5.5985000716668708e+01 5.5345692040283048e+01 3.8594112525780410e+01 0 0 0
2519 2455 4 0.0000000000000000e+00 5.1519824049999997e+01 5.7461403179999998e+01 3.8695056710000003e+01 0 0 0
2965 2505 2 0.0000000000000000e+00 5.1769377347463298e+01 5.1571964007983787e+01 4.0878832657291760e+01 0 0 0
3 3 1 0.0000000000000000e+00 5.9217700000000001e+01 5.1583399999999997e+01 4.0965299999999999e+01 0 0 0
4 4 1 0.0000000000000000e+00 6.3509599999999999e+01 5.1626899999999999e+01 4.0731200000000001e+01 0 0 0
6 6 1 0.0000000000000000e+00 6.1335999999999999e+01 5.1478700000000003e+01 4.2680300000000003e+01 0 0 0
10 10 1 0.0000000000000000e+00 5.9224499999999999e+01 5.5330800000000004e+01 4.0920900000000003e+01 0 0 0
11 11 1 0.0000000000000000e+00 5.9467399999999998e+01 5.3377099999999999e+01 4.2929299999999998e+01 0 0 0
13 13 1 0.0000000000000000e+00 6.1336599999999997e+01 5.3333100000000002e+01 4.0550899999999999e+01 0 0 0
14 14 1 0.0000000000000000e+00 6.3418199999999999e+01 5.5220199999999998e+01 4.1035200000000003e+01 0 0 0
15 15 1 0.0000000000000000e+00 6.3352800000000002e+01 5.3315600000000003e+01 4.2946199999999997e+01 0 0 0
16 16 1 0.0000000000000000e+00 6.1267200000000003e+01 5.5357799999999997e+01 4.2808799999999998e+01 0 0 0
23 23 1 0.0000000000000000e+00 5.9301499999999997e+01 5.7321599999999997e+01 4.2941800000000001e+01 0 0 0
25 25 1 0.0000000000000000e+00 6.1342700000000001e+01 5.7346699999999998e+01 4.0990299999999998e+01 0 0 0
27 27 1 0.0000000000000000e+00 6.3452599999999997e+01 5.7332099999999997e+01 4.2875500000000002e+01 0 0 0
17 17 1 0.0000000000000000e+00 6.7404100000000000e+01 5.3487699999999997e+01 4.3072400000000002e+01 0 0 0
18 18 1 0.0000000000000000e+00 6.5546800000000005e+01 5.5348700000000001e+01 4.2902900000000002e+01 0 0 0
19 19 1 0.0000000000000000e+00 6.9530600000000007e+01 5.5502499999999998e+01 4.3170600000000000e+01 0 0 0
29 29 1 0.0000000000000000e+00 6.7503600000000006e+01 5.7336399999999998e+01 4.2939599999999999e+01 0 0 0
2846 2492 4 0.0000000000000000e+00 7.0881231009999993e+01 5.6777344329999998e+01 3.8695056710000003e+01 0 0 0
3937 2611 4 0.0000000000000000e+00 6.6822058740000003e+01 5.2305105439999998e+01 3.8695056710000003e+01 0 0 0
3939 2611 2 0.0000000000000000e+00 6.7794679571248778e+01 5.1716241313736766e+01 4.0108486893196925e+01 0 0 0
3935 2611 2 0.0000000000000000e+00 6.8953049357718712e+01 5.2681261690984279e+01 4.0365283931164882e+01 0 0 0
3938 2611 2 0.0000000000000000e+00 7.0052738194598874e+01 5.2444957778722703e+01 3.9326774903175640e+01 0 0 0
3548 2568 2 0.0000000000000000e+00 7.6472615175103314e+01 5.3320086269374258e+01 4.3105396495418148e+01 0 0 0
3544 2568 2 0.0000000000000000e+00 7.6969385542790278e+01 5.4565340124410916e+01 4.3841325610997039e+01 0 0 0
3546 2568 4 0.0000000000000000e+00 7.5168729540000001e+01 5.3791604960000001e+01 4.1935742910000002e+01 0 0 0
2847 2492 2 0.0000000000000000e+00 7.4769896826342816e+01 5.7496048394179404e+01 3.8901868069678216e+01 0 0 0
2842 2492 2 0.0000000000000000e+00 7.5045450724871529e+01 5.6139826720530252e+01 3.8248707359848190e+01 0 0 0