3065
Atoms. Timestep: 6157438
1 -4.085 -10.2125 -18.3825
1 -2.0425 -12.255 -18.3825
1 0 -12.255 -20.425
1 0 -10.2125 -18.3825
1 2.0425 -12.255 -18.3825
1 4.085 -10.2125 -18.3825
1 -6.1275 -8.17 -18.3825
1 -4.085 -6.1275 -18.3825
1 -2.0425 -8.17 -18.3825
1 0 -8.17 -20.425
1 0 -6.1275 -18.3825
1 2.0425 -8.17 -18.3825
1 4.085 -6.1275 -18.3825
1 6.1275 -8.17 -18.3825
1 -6.1275 -4.085 -18.3825
1 -4.085 -2.0425 -18.3825
1 -2.0425 -4.085 -18.3825
1 0 -4.085 -20.425
1 0 -2.0425 -18.3825
1 2.0425 -4.085 -18.3825
1 4.085 -2.0425 -18.3825
1 6.1275 -4.085 -18.3825
1 -6.1275 0 -18.3825
1 -4.085 2.0425 -18.3825
1 -2.0425 0 -18.3825
1 0 0 -20.425
1 0 2.0425 -18.3825
1 2.0425 0 -18.3825
1 4.085 2.0425 -18.3825
1 6.1275 0 -18.3825
1 -6.1275 4.085 -18.3825
1 -4.085 6.1275 -18.3825
1 -2.0425 4.085 -18.3825
1 0 4.085 -20.425
1 0 6.1275 -18.3825
1 2.0425 4.085 -18.3825
1 4.085 6.1275 -18.3825
1 6.1275 4.085 -18.3825
1 -6.1275 8.17 -18.3825
1 -4.085 10.2125 -18.3825
1 -2.0425 8.17 -18.3825
1 0 8.17 -20.425
1 0 10.2125 -18.3825
1 2.0425 8.17 -18.3825
1 4.085 10.2125 -18.3825
1 6.1275 8.17 -18.3825
1 -2.0425 12.255 -18.3825
1 0 12.255 -20.425
1 2.0425 12.255 -18.3825
1 -4.085 -14.2975 -14.2975
1 -2.0425 -14.2975 -16.34
1 0 -14.2975 -14.2975
1 2.0425 -14.2975 -16.34
1 4.085 -14.2975 -14.2975
1 -8.17 -10.2125 -14.2975
1 -6.1275 -12.255 -14.2975
1 -6.1275 -10.2125 -16.34
1 -4.085 -12.255 -16.34
1 -4.085 -10.2125 -14.2975
1 -2.0425 -12.255 -14.2975
1 -2.0425 -10.2125 -16.34
1 0 -12.255 -16.34
1 2.0425 -12.255 -14.2975
1 2.0425 -10.2125 -16.34
1 4.085 -12.255 -16.34
1 4.085 -10.2125 -14.2975
1 6.1275 -12.255 -14.2975
1 6.1275 -10.2125 -16.34
1 8.17 -10.2125 -14.2975
1 -12.255 -6.1275 -14.2975
1 -10.2125 -8.17 -14.2975
1 -10.2125 -6.1275 -16.34
1 -8.17 -8.17 -16.34
1 -8.17 -6.1275 -14.2975
1 -6.1275 -8.17 -14.2975
1 -6.1275 -6.1275 -16.34
1 -4.085 -8.17 -16.34
1 -2.0425 -6.1275 -16.34
1 0 -8.17 -16.34
1 2.0425 -6.1275 -16.34
1 4.085 -8.17 -16.34
1 6.1275 -8.17 -14.2975
1 6.1275 -6.1275 -16.34
1 8.17 -8.17 -16.34
1 8.17 -6.1275 -14.2975
1 10.2125 -8.17 -14.2975
1 10.2125 -6.1275 -16.34
1 12.255 -6.1275 -14.2975
1 -16.34 -2.0425 -14.2975
1 -14.2975 -4.085 -14.2975
1 -12.255 -4.085 -16.34
1 -12.255 -2.0425 -14.2975
1 -10.2125 -4.085 -14.2975
1 -10.2125 -2.0425 -16.34
1 -8.17 -4.085 -16.34
1 -8.17 -2.0425 -14.2975
1 -6.1275 -4.085 -14.2975
1 -6.1275 -2.0425 -16.34
1 -4.085 -4.085 -16.34
1 -2.0425 -2.0425 -16.34
1 0 -4.085 -16.34
1 2.0425 -2.0425 -16.34
1 4.085 -4.085 -16.34
1 6.1275 -4.085 -14.2975
1 6.1275 -2.0425 -16.34
1 8.17 -4.085 -16.34
1 8.17 -2.0425 -14.2975
1 10.2125 -4.085 -14.2975
1 10.2125 -2.0425 -16.34
1 12.255 -4.085 -16.34
1 12.255 -2.0425 -14.2975
1 14.2975 -4.085 -14.2975
1 16.34 -2.0425 -14.2975
1 -16.34 2.0425 -14.2975
1 -14.2975 0 -14.2975
1 -12.255 0 -16.34
1 -12.255 2.0425 -14.2975
1 -10.2125 0 -14.2975
1 -10.2125 2.0425 -16.34
1 -8.17 0 -16.34
1 -8.17 2.0425 -14.2975
1 -6.1275 0 -14.2975
1 -6.1275 2.0425 -16.34
1 -4.085 0 -16.34
1 -2.0425 2.0425 -16.34
1 0 0 -16.34
1 2.0425 2.0425 -16.34
1 4.085 0 -16.34
1 6.1275 0 -14.2975
1 6.1275 2.0425 -16.34
1 8.17 0 -16.34
1 8.17 2.0425 -14.2975
1 10.2125 0 -14.2975
1 10.2125 2.0425 -16.34
1 12.255 0 -16.34
1 12.255 2.0425 -14.2975
1 14.2975 0 -14.2975
1 16.34 2.0425 -14.2975
1 -14.2975 4.085 -14.2975
1 -12.255 4.085 -16.34
1 -12.255 6.1275 -14.2975
1 -10.2125 4.085 -14.2975
1 -10.2125 6.1275 -16.34
1 -8.17 4.085 -16.34
1 -8.17 6.1275 -14.2975
1 -6.1275 4.085 -14.2975
1 -6.1275 6.1275 -16.34
1 -4.085 4.085 -16.34
1 -2.0425 6.1275 -16.34
1 0 4.085 -16.34
1 2.0425 6.1275 -16.34
1 4.085 4.085 -16.34
1 6.1275 4.085 -14.2975
1 6.1275 6.1275 -16.34
1 8.17 4.085 -16.34
1 8.17 6.1275 -14.2975
1 10.2125 4.085 -14.2975
1 10.2125 6.1275 -16.34
1 12.255 4.085 -16.34
1 12.255 6.1275 -14.2975
1 14.2975 4.085 -14.2975
1 -10.2125 8.17 -14.2975
1 -8.17 8.17 -16.34
1 -8.17 10.2125 -14.2975
1 -6.1275 8.17 -14.2975
1 -6.1275 10.2125 -16.34
1 -4.085 8.17 -16.34
1 -4.085 10.2125 -14.2975
1 -2.0425 10.2125 -16.34
1 0 8.17 -16.34
1 2.0425 10.2125 -16.34
1 4.085 8.17 -16.34
1 4.085 10.2125 -14.2975
1 6.1275 8.17 -14.2975
1 6.1275 10.2125 -16.34
1 8.17 8.17 -16.34
1 8.17 10.2125 -14.2975
1 10.2125 8.17 -14.2975
1 -6.1275 12.255 -14.2975
1 -4.085 12.255 -16.34
1 -4.085 14.2975 -14.2975
1 -2.0425 12.255 -14.2975
1 -2.0425 14.2975 -16.34
1 0 12.255 -16.34
1 0 14.2975 -14.2975
1 2.0425 12.255 -14.2975
1 2.0425 14.2975 -16.34
1 4.085 12.255 -16.34
1 4.085 14.2975 -14.2975
1 6.1275 12.255 -14.2975
1 -8.17 -14.2975 -10.2125
1 -6.1275 -16.34 -10.2125
1 -6.1275 -14.2975 -12.255
1 -4.085 -16.34 -12.255
1 -4.085 -14.2975 -10.2125
1 -2.0425 -16.34 -10.2125
1 -2.0425 -14.2975 -12.255
1 0 -16.34 -12.255
1 0 -14.2975 -10.2125
1 2.0425 -16.34 -10.2125
1 2.0425 -14.2975 -12.255
1 4.085 -16.34 -12.255
1 4.085 -14.2975 -10.2125
1 6.1275 -16.34 -10.2125
1 6.1275 -14.2975 -12.255
1 8.17 -14.2975 -10.2125
1 -12.255 -10.2125 -10.2125
1 -10.2125 -12.255 -10.2125
1 -10.2125 -10.2125 -12.255
1 -8.17 -12.255 -12.255
1 -8.17 -10.2125 -10.2125
1 -6.1275 -12.255 -10.2125
1 -6.1275 -10.2125 -12.255
1 -4.085 -12.255 -12.255
1 0 -12.255 -12.255
1 4.085 -12.255 -12.255
1 6.1275 -12.255 -10.2125
1 6.1275 -10.2125 -12.255
1 8.17 -12.255 -12.255
1 8.17 -10.2125 -10.2125
1 10.2125 -12.255 -10.2125
1 10.2125 -10.2125 -12.255
1 12.255 -10.2125 -10.2125
1 -16.34 -6.1275 -10.2125
1 -14.2975 -8.17 -10.2125
1 -14.2975 -6.1275 -12.255
1 -12.255 -8.17 -12.255
1 -12.255 -6.1275 -10.2125
1 -10.2125 -8.17 -10.2125
1 -10.2125 -6.1275 -12.255
1 -8.17 -8.17 -12.255
1 8.17 -8.17 -12.255
1 10.2125 -8.17 -10.2125
1 10.2125 -6.1275 -12.255
1 12.255 -8.17 -12.255
1 12.255 -6.1275 -10.2125
1 14.2975 -8.17 -10.2125
1 14.2975 -6.1275 -12.255
1 16.34 -6.1275 -10.2125
1 -18.3825 -4.085 -10.2125
1 -18.3825 -2.0425 -12.255
1 -16.34 -4.085 -12.255
1 -16.34 -2.0425 -10.2125
1 -14.2975 -4.085 -10.2125
1 -14.2975 -2.0425 -12.255
1 -12.255 -4.085 -12.255
1 12.255 -4.085 -12.255
1 14.2975 -4.085 -10.2125
1 14.2975 -2.0425 -12.255
1 16.34 -4.085 -12.255
1 16.34 -2.0425 -10.2125
1 18.3825 -4.085 -10.2125
1 18.3825 -2.0425 -12.255
1 -20.425 0 -12.255
1 -18.3825 0 -10.2125
1 -18.3825 2.0425 -12.255
1 -16.34 0 -12.255
1 -16.34 2.0425 -10.2125
1 -14.2975 2.0425 -12.255
1 -12.255 0 -12.255
1 12.255 0 -12.255
1 14.2975 2.0425 -12.255
1 16.34 0 -12.255
1 16.34 2.0425 -10.2125
1 18.3825 0 -10.2125
1 18.3825 2.0425 -12.255
1 20.425 0 -12.255
1 -18.3825 4.085 -10.2125
1 -16.34 4.085 -12.255
1 -16.34 6.1275 -10.2125
1 -14.2975 4.085 -10.2125
1 -14.2975 6.1275 -12.255
1 -12.255 4.085 -12.255
1 -12.255 6.1275 -10.2125
1 -10.2125 6.1275 -12.255
1 10.2125 6.1275 -12.255
1 12.255 4.085 -12.255
1 12.255 6.1275 -10.2125
1 14.2975 4.085 -10.2125
1 14.2975 6.1275 -12.255
1 16.34 4.085 -12.255
1 16.34 6.1275 -10.2125
1 18.3825 4.085 -10.2125
1 -14.2975 8.17 -10.2125
1 -12.255 8.17 -12.255
1 -12.255 10.2125 -10.2125
1 -10.2125 8.17 -10.2125
1 -10.2125 10.2125 -12.255
1 -8.17 8.17 -12.255
1 -8.17 10.2125 -10.2125
1 -6.1275 10.2125 -12.255
1 6.1275 10.2125 -12.255
1 8.17 8.17 -12.255
1 8.17 10.2125 -10.2125
1 10.2125 8.17 -10.2125
1 10.2125 10.2125 -12.255
1 12.255 8.17 -12.255
1 12.255 10.2125 -10.2125
1 14.2975 8.17 -10.2125
1 -10.2125 12.255 -10.2125
1 -8.17 12.255 -12.255
1 -8.17 14.2975 -10.2125
1 -6.1275 12.255 -10.2125
1 -6.1275 14.2975 -12.255
1 -4.085 12.255 -12.255
1 -4.085 14.2975 -10.2125
1 -2.0425 14.2975 -12.255
1 0 12.255 -12.255
1 0 14.2975 -10.2125
1 2.0425 14.2975 -12.255
1 4.085 12.255 -12.255
1 4.085 14.2975 -10.2125
1 6.1275 12.255 -10.2125
1 6.1275 14.2975 -12.255
1 8.17 12.255 -12.255
1 8.17 14.2975 -10.2125
1 10.2125 12.255 -10.2125
1 -6.1275 16.34 -10.2125
1 -4.085 16.34 -12.255
1 -2.0425 16.34 -10.2125
1 0 16.34 -12.255
1 2.0425 16.34 -10.2125
1 4.085 16.34 -12.255
1 6.1275 16.34 -10.2125
1 -8.17 -18.3825 -6.1275
1 -4.085 -18.3825 -6.1275
1 0 -18.3825 -6.1275
1 4.085 -18.3825 -6.1275
1 8.17 -18.3825 -6.1275
1 -12.255 -14.2975 -6.1275
1 -10.2125 -16.34 -6.1275
1 -10.2125 -14.2975 -8.17
1 -8.17 -16.34 -8.17
1 -8.17 -14.2975 -6.1275
1 -6.1275 -16.34 -6.1275
1 -6.1275 -14.2975 -8.17
1 -4.085 -16.34 -8.17
1 -4.085 -14.2975 -6.1275
1 -2.0425 -16.34 -6.1275
1 -2.0425 -14.2975 -8.17
1 0 -16.34 -8.17
1 0 -14.2975 -6.1275
1 2.0425 -16.34 -6.1275
1 2.0425 -14.2975 -8.17
1 4.085 -16.34 -8.17
1 4.085 -14.2975 -6.1275
1 6.1275 -16.34 -6.1275
1 6.1275 -14.2975 -8.17
1 8.17 -16.34 -8.17
1 8.17 -14.2975 -6.1275
1 10.2125 -16.34 -6.1275
1 10.2125 -14.2975 -8.17
1 12.255 -14.2975 -6.1275
1 -16.34 -10.2125 -6.1275
1 -14.2975 -12.255 -6.1275
1 -14.2975 -10.2125 -8.17
1 -12.255 -12.255 -8.17
1 -12.255 -10.2125 -6.1275
1 -10.2125 -12.255 -6.1275
1 -10.2125 -10.2125 -8.17
1 -8.17 -12.255 -8.17
1 8.17 -12.255 -8.17
1 10.2125 -12.255 -6.1275
1 10.2125 -10.2125 -8.17
1 12.255 -12.255 -8.17
1 12.255 -10.2125 -6.1275
1 14.2975 -12.255 -6.1275
1 14.2975 -10.2125 -8.17
1 16.34 -10.2125 -6.1275
1 -18.3825 -6.1275 -8.17
1 -16.34 -8.17 -8.17
1 -16.34 -6.1275 -6.1275
1 -14.2975 -8.17 -6.1275
1 -14.2975 -6.1275 -8.17
1 -12.255 -8.17 -8.17
1 12.255 -8.17 -8.17
1 14.2975 -8.17 -6.1275
1 14.2975 -6.1275 -8.17
1 16.34 -8.17 -8.17
1 16.34 -6.1275 -6.1275
1 18.3825 -6.1275 -8.17
1 -18.3825 -4.085 -6.1275
1 -18.3825 -2.0425 -8.17
1 -16.34 -4.085 -8.17
1 -16.34 -2.0425 -6.1275
1 16.34 -4.085 -8.17
1 16.34 -2.0425 -6.1275
1 18.3825 -4.085 -6.1275
1 18.3825 -2.0425 -8.17
1 -20.425 0 -8.17
1 -18.3825 0 -6.1275
1 -18.3825 2.0425 -8.17
1 -16.34 0 -8.17
1 -16.34 2.0425 -6.1275
1 16.34 0 -8.17
1 16.34 2.0425 -6.1275
1 18.3825 0 -6.1275
1 18.3825 2.0425 -8.17
1 20.425 0 -8.17
1 -18.3825 4.085 -6.1275
1 -18.3825 6.1275 -8.17
1 -16.34 4.085 -8.17
1 -16.34 6.1275 -6.1275
1 -14.2975 6.1275 -8.17
1 14.2975 6.1275 -8.17
1 16.34 4.085 -8.17
1 16.34 6.1275 -6.1275
1 18.3825 4.085 -6.1275
1 18.3825 6.1275 -8.17
1 -16.34 8.17 -8.17
1 -16.34 10.2125 -6.1275
1 -14.2975 8.17 -6.1275
1 -14.2975 10.2125 -8.17
1 -12.255 8.17 -8.17
1 -12.255 10.2125 -6.1275
1 -10.2125 10.2125 -8.17
1 10.2125 10.2125 -8.17
1 12.255 8.17 -8.17
1 12.255 10.2125 -6.1275
1 14.2975 8.17 -6.1275
1 14.2975 10.2125 -8.17
1 16.34 8.17 -8.17
1 16.34 10.2125 -6.1275
1 -14.2975 12.255 -6.1275
1 -12.255 12.255 -8.17
1 -12.255 14.2975 -6.1275
1 -10.2125 12.255 -6.1275
1 -10.2125 14.2975 -8.17
1 -8.17 12.255 -8.17
1 -8.17 14.2975 -6.1275
1 -6.1275 14.2975 -8.17
1 -4.085 14.2975 -6.1275
1 -2.0425 14.2975 -8.17
1 0 14.2975 -6.1275
1 2.0425 14.2975 -8.17
1 4.085 14.2975 -6.1275
1 6.1275 14.2975 -8.17
1 8.17 12.255 -8.17
1 8.17 14.2975 -6.1275
1 10.2125 12.255 -6.1275
1 10.2125 14.2975 -8.17
1 12.255 12.255 -8.17
1 12.255 14.2975 -6.1275
1 14.2975 12.255 -6.1275
1 -10.2125 16.34 -6.1275
1 -8.17 16.34 -8.17
1 -8.17 18.3825 -6.1275
1 -6.1275 16.34 -6.1275
1 -4.085 16.34 -8.17
1 -4.085 18.3825 -6.1275
1 -2.0425 16.34 -6.1275
1 0 16.34 -8.17
1 0 18.3825 -6.1275
1 2.0425 16.34 -6.1275
1 4.085 16.34 -8.17
1 4.085 18.3825 -6.1275
1 6.1275 16.34 -6.1275
1 8.17 16.34 -8.17
1 8.17 18.3825 -6.1275
1 10.2125 16.34 -6.1275
1 -12.255 -18.3825 -2.0425
1 -10.2125 -18.3825 -4.085
1 -8.17 -18.3825 -2.0425
1 -6.1275 -18.3825 -4.085
1 -4.085 -18.3825 -2.0425
1 -2.0425 -18.3825 -4.085
1 0 -18.3825 -2.0425
1 2.0425 -18.3825 -4.085
1 4.085 -18.3825 -2.0425
1 6.1275 -18.3825 -4.085
1 8.17 -18.3825 -2.0425
1 10.2125 -18.3825 -4.085
1 12.255 -18.3825 -2.0425
1 -14.2975 -16.34 -2.0425
1 -14.2975 -14.2975 -4.085
1 -12.255 -16.34 -4.085
1 -12.255 -14.2975 -2.0425
1 -10.2125 -16.34 -2.0425
1 -10.2125 -14.2975 -4.085
1 -8.17 -16.34 -4.085
1 -6.1275 -16.34 -2.0425
1 -4.085 -16.34 -4.085
1 -2.0425 -16.34 -2.0425
1 0 -16.34 -4.085
1 2.0425 -16.34 -2.0425
1 4.085 -16.34 -4.085
1 6.1275 -16.34 -2.0425
1 8.17 -16.34 -4.085
1 10.2125 -16.34 -2.0425
1 10.2125 -14.2975 -4.085
1 12.255 -16.34 -4.085
1 12.255 -14.2975 -2.0425
1 14.2975 -16.34 -2.0425
1 14.2975 -14.2975 -4.085
1 -16.34 -12.255 -4.085
1 -16.34 -10.2125 -2.0425
1 -14.2975 -12.255 -2.0425
1 -14.2975 -10.2125 -4.085
1 -12.255 -12.255 -4.085
1 12.255 -12.255 -4.085
1 14.2975 -12.255 -2.0425
1 14.2975 -10.2125 -4.085
1 16.34 -12.255 -4.085
1 16.34 -10.2125 -2.0425
1 -18.3825 -6.1275 -4.085
1 -16.34 -8.17 -4.085
1 -16.34 -6.1275 -2.0425
1 -14.2975 -8.17 -2.0425
1 -14.2975 -6.1275 -4.085
1 14.2975 -8.17 -2.0425
1 14.2975 -6.1275 -4.085
1 16.34 -8.17 -4.085
1 16.34 -6.1275 -2.0425
1 18.3825 -6.1275 -4.085
1 -18.3825 -4.085 -2.0425
1 -18.3825 -2.0425 -4.085
1 -16.34 -4.085 -4.085
1 -16.34 -2.0425 -2.0425
1 16.34 -4.085 -4.085
1 16.34 -2.0425 -2.0425
1 18.3825 -4.085 -2.0425
1 18.3825 -2.0425 -4.085
1 -20.425 0 -4.085
1 -18.3825 0 -2.0425
1 -18.3825 2.0425 -4.085
1 -16.34 0 -4.085
1 -16.34 2.0425 -2.0425
1 16.34 0 -4.085
1 16.34 2.0425 -2.0425
1 18.3825 0 -2.0425
1 18.3825 2.0425 -4.085
1 20.425 0 -4.085
1 -18.3825 4.085 -2.0425
1 -18.3825 6.1275 -4.085
1 -16.34 4.085 -4.085
1 -16.34 6.1275 -2.0425
1 -14.2975 6.1275 -4.085
1 14.2975 6.1275 -4.085
1 16.34 4.085 -4.085
1 16.34 6.1275 -2.0425
1 18.3825 4.085 -2.0425
1 18.3825 6.1275 -4.085
1 -16.34 8.17 -4.085
1 -16.34 10.2125 -2.0425
1 -14.2975 8.17 -2.0425
1 -14.2975 10.2125 -4.085
1 14.2975 8.17 -2.0425
1 14.2975 10.2125 -4.085
1 16.34 8.17 -4.085
1 16.34 10.2125 -2.0425
1 -16.34 12.255 -4.085
1 -14.2975 12.255 -2.0425
1 -14.2975 14.2975 -4.085
1 -12.255 12.255 -4.085
1 -12.255 14.2975 -2.0425
1 -10.2125 14.2975 -4.085
1 10.2125 14.2975 -4.085
1 12.255 12.255 -4.085
1 12.255 14.2975 -2.0425
1 14.2975 12.255 -2.0425
1 14.2975 14.2975 -4.085
1 16.34 12.255 -4.085
1 -14.2975 16.34 -2.0425
1 -12.255 16.34 -4.085
1 -12.255 18.3825 -2.0425
1 -10.2125 16.34 -2.0425
1 -10.2125 18.3825 -4.085
1 -8.17 16.34 -4.085
1 -8.17 18.3825 -2.0425
1 -6.1275 16.34 -2.0425
1 -6.1275 18.3825 -4.085
1 -4.085 16.34 -4.085
1 -4.085 18.3825 -2.0425
1 -2.0425 16.34 -2.0425
1 -2.0425 18.3825 -4.085
1 0 16.34 -4.085
1 0 18.3825 -2.0425
1 2.0425 16.34 -2.0425
1 2.0425 18.3825 -4.085
1 4.085 16.34 -4.085
1 4.085 18.3825 -2.0425
1 6.1275 16.34 -2.0425
1 6.1275 18.3825 -4.085
1 8.17 16.34 -4.085
1 8.17 18.3825 -2.0425
1 10.2125 16.34 -2.0425
1 10.2125 18.3825 -4.085
1 12.255 16.34 -4.085
1 12.255 18.3825 -2.0425
1 14.2975 16.34 -2.0425
1 -12.255 -20.425 0
1 -12.255 -18.3825 2.0425
1 -10.2125 -18.3825 0
1 -8.17 -20.425 0
1 -8.17 -18.3825 2.0425
1 -6.1275 -18.3825 0
1 -4.085 -20.425 0
1 -4.085 -18.3825 2.0425
1 -2.0425 -18.3825 0
1 0 -20.425 0
1 0 -18.3825 2.0425
1 2.0425 -18.3825 0
1 4.085 -20.425 0
1 4.085 -18.3825 2.0425
1 6.1275 -18.3825 0
1 8.17 -20.425 0
1 8.17 -18.3825 2.0425
1 10.2125 -18.3825 0
1 12.255 -20.425 0
1 12.255 -18.3825 2.0425
1 -14.2975 -16.34 2.0425
1 -14.2975 -14.2975 0
1 -12.255 -16.34 0
1 -12.255 -14.2975 2.0425
1 -10.2125 -16.34 2.0425
1 -8.17 -16.34 0
1 -6.1275 -16.34 2.0425
1 -4.085 -16.34 0
1 -2.0425 -16.34 2.0425
1 0 -16.34 0
1 2.0425 -16.34 2.0425
1 4.085 -16.34 0
1 6.1275 -16.34 2.0425
1 8.17 -16.34 0
1 10.2125 -16.34 2.0425
1 12.255 -16.34 0
1 12.255 -14.2975 2.0425
1 14.2975 -16.34 2.0425
1 14.2975 -14.2975 0
1 -16.34 -12.255 0
1 -16.34 -10.2125 2.0425
1 -14.2975 -12.255 2.0425
1 -14.2975 -10.2125 0
1 -12.255 -12.255 0
1 12.255 -12.255 0
1 14.2975 -12.255 2.0425
1 14.2975 -10.2125 0
1 16.34 -12.255 0
1 16.34 -10.2125 2.0425
1 -18.3825 -6.1275 0
1 -16.34 -8.17 0
1 -16.34 -6.1275 2.0425
1 -14.2975 -8.17 2.0425
1 -14.2975 -6.1275 0
1 14.2975 -8.17 2.0425
1 14.2975 -6.1275 0
1 16.34 -8.17 0
1 16.34 -6.1275 2.0425
1 18.3825 -6.1275 0
1 -18.3825 -4.085 2.0425
1 -18.3825 -2.0425 0
1 -16.34 -4.085 0
1 -16.34 -2.0425 2.0425
1 16.34 -4.085 0
1 16.34 -2.0425 2.0425
1 18.3825 -4.085 2.0425
1 18.3825 -2.0425 0
1 -20.425 0 0
1 -18.3825 0 2.0425
1 -18.3825 2.0425 0
1 -16.34 0 0
1 -16.34 2.0425 2.0425
1 16.34 0 0
1 16.34 2.0425 2.0425
1 18.3825 0 2.0425
1 18.3825 2.0425 0
1 20.425 0 0
1 -18.3825 4.085 2.0425
1 -18.3825 6.1275 0
1 -16.34 4.085 0
1 -16.34 6.1275 2.0425
1 -14.2975 6.1275 0
1 14.2975 6.1275 0
1 16.34 4.085 0
1 16.34 6.1275 2.0425
1 18.3825 4.085 2.0425
1 18.3825 6.1275 0
1 -16.34 8.17 0
1 -16.34 10.2125 2.0425
1 -14.2975 8.17 2.0425
1 -14.2975 10.2125 0
1 14.2975 8.17 2.0425
1 14.2975 10.2125 0
1 16.34 8.17 0
1 16.34 10.2125 2.0425
1 -16.34 12.255 0
1 -14.2975 12.255 2.0425
1 -14.2975 14.2975 0
1 -12.255 12.255 0
1 -12.255 14.2975 2.0425
1 12.255 12.255 0
1 12.255 14.2975 2.0425
1 14.2975 12.255 2.0425
1 14.2975 14.2975 0
1 16.34 12.255 0
1 -14.2975 16.34 2.0425
1 -12.255 16.34 0
1 -12.255 18.3825 2.0425
1 -10.2125 16.34 2.0425
1 -10.2125 18.3825 0
1 -8.17 16.34 0
1 -8.17 18.3825 2.0425
1 -6.1275 16.34 2.0425
1 -6.1275 18.3825 0
1 -4.085 16.34 0
1 -4.085 18.3825 2.0425
1 -2.0425 16.34 2.0425
1 -2.0425 18.3825 0
1 0 16.34 0
1 0 18.3825 2.0425
1 2.0425 16.34 2.0425
1 2.0425 18.3825 0
1 4.085 16.34 0
1 4.085 18.3825 2.0425
1 6.1275 16.34 2.0425
1 6.1275 18.3825 0
1 8.17 16.34 0
1 8.17 18.3825 2.0425
1 10.2125 16.34 2.0425
1 10.2125 18.3825 0
1 12.255 16.34 0
1 12.255 18.3825 2.0425
1 14.2975 16.34 2.0425
1 -12.255 20.425 0
1 -8.17 20.425 0
1 -4.085 20.425 0
1 0 20.425 0
1 4.085 20.425 0
1 8.17 20.425 0
1 12.255 20.425 0
1 -10.2125 -18.3825 4.085
1 -8.17 -18.3825 6.1275
1 -6.1275 -18.3825 4.085
1 -4.085 -18.3825 6.1275
1 -2.0425 -18.3825 4.085
1 0 -18.3825 6.1275
1 2.0425 -18.3825 4.085
1 4.085 -18.3825 6.1275
1 6.1275 -18.3825 4.085
1 8.17 -18.3825 6.1275
1 10.2125 -18.3825 4.085
1 -14.2975 -14.2975 4.085
1 -12.255 -16.34 4.085
1 -12.255 -14.2975 6.1275
1 -10.2125 -16.34 6.1275
1 -10.2125 -14.2975 4.085
1 -8.17 -16.34 4.085
1 -8.17 -14.2975 6.1275
1 -6.1275 -16.34 6.1275
1 -4.085 -16.34 4.085
1 -4.085 -14.2975 6.1275
1 -2.0425 -16.34 6.1275
1 0 -16.34 4.085
1 0 -14.2975 6.1275
1 2.0425 -16.34 6.1275
1 4.085 -16.34 4.085
1 4.085 -14.2975 6.1275
1 6.1275 -16.34 6.1275
1 8.17 -16.34 4.085
1 8.17 -14.2975 6.1275
1 10.2125 -16.34 6.1275
1 10.2125 -14.2975 4.085
1 12.255 -16.34 4.085
1 12.255 -14.2975 6.1275
1 14.2975 -14.2975 4.085
1 -16.34 -12.255 4.085
1 -16.34 -10.2125 6.1275
1 -14.2975 -12.255 6.1275
1 -14.2975 -10.2125 4.085
1 -12.255 -12.255 4.085
1 -12.255 -10.2125 6.1275
1 -10.2125 -12.255 6.1275
1 10.2125 -12.255 6.1275
1 12.255 -12.255 4.085
1 12.255 -10.2125 6.1275
1 14.2975 -12.255 6.1275
1 14.2975 -10.2125 4.085
1 16.34 -12.255 4.085
1 16.34 -10.2125 6.1275
1 -18.3825 -6.1275 4.085
1 -16.34 -8.17 4.085
1 -16.34 -6.1275 6.1275
1 -14.2975 -8.17 6.1275
1 -14.2975 -6.1275 4.085
1 14.2975 -8.17 6.1275
1 14.2975 -6.1275 4.085
1 16.34 -8.17 4.085
1 16.34 -6.1275 6.1275
1 18.3825 -6.1275 4.085
1 -18.3825 -4.085 6.1275
1 -18.3825 -2.0425 4.085
1 -16.34 -4.085 4.085
1 -16.34 -2.0425 6.1275
1 16.34 -4.085 4.085
1 16.34 -2.0425 6.1275
1 18.3825 -4.085 6.1275
1 18.3825 -2.0425 4.085
1 -20.425 0 4.085
1 -18.3825 0 6.1275
1 -18.3825 2.0425 4.085
1 -16.34 0 4.085
1 -16.34 2.0425 6.1275
1 16.34 0 4.085
1 16.34 2.0425 6.1275
1 18.3825 0 6.1275
1 18.3825 2.0425 4.085
1 20.425 0 4.085
1 -18.3825 4.085 6.1275
1 -18.3825 6.1275 4.085
1 -16.34 4.085 4.085
1 -16.34 6.1275 6.1275
1 -14.2975 6.1275 4.085
1 14.2975 6.1275 4.085
1 16.34 4.085 4.085
1 16.34 6.1275 6.1275
1 18.3825 4.085 6.1275
1 18.3825 6.1275 4.085
1 -16.34 8.17 4.085
1 -16.34 10.2125 6.1275
1 -14.2975 8.17 6.1275
1 -14.2975 10.2125 4.085
1 -12.255 10.2125 6.1275
1 12.255 10.2125 6.1275
1 14.2975 8.17 6.1275
1 14.2975 10.2125 4.085
1 16.34 8.17 4.085
1 16.34 10.2125 6.1275
1 -16.34 12.255 4.085
1 -14.2975 12.255 6.1275
1 -14.2975 14.2975 4.085
1 -12.255 12.255 4.085
1 -12.255 14.2975 6.1275
1 -10.2125 12.255 6.1275
1 -10.2125 14.2975 4.085
1 -8.17 14.2975 6.1275
1 -4.085 14.2975 6.1275
1 0 14.2975 6.1275
1 4.085 14.2975 6.1275
1 8.17 14.2975 6.1275
1 10.2125 12.255 6.1275
1 10.2125 14.2975 4.085
1 12.255 12.255 4.085
1 12.255 14.2975 6.1275
1 14.2975 12.255 6.1275
1 14.2975 14.2975 4.085
1 16.34 12.255 4.085
1 -12.255 16.34 4.085
1 -10.2125 16.34 6.1275
1 -10.2125 18.3825 4.085
1 -8.17 16.34 4.085
1 -8.17 18.3825 6.1275
1 -6.1275 16.34 6.1275
1 -6.1275 18.3825 4.085
1 -4.085 16.34 4.085
1 -4.085 18.3825 6.1275
1 -2.0425 16.34 6.1275
1 -2.0425 18.3825 4.085
1 0 16.34 4.085
1 0 18.3825 6.1275
1 2.0425 16.34 6.1275
1 2.0425 18.3825 4.085
1 4.085 16.34 4.085
1 4.085 18.3825 6.1275
1 6.1275 16.34 6.1275
1 6.1275 18.3825 4.085
1 8.17 16.34 4.085
1 8.17 18.3825 6.1275
1 10.2125 16.34 6.1275
1 10.2125 18.3825 4.085
1 12.255 16.34 4.085
1 -10.2125 -14.2975 8.17
1 -8.17 -16.34 8.17
1 -8.17 -14.2975 10.2125
1 -6.1275 -16.34 10.2125
1 -6.1275 -14.2975 8.17
1 -4.085 -16.34 8.17
1 -4.085 -14.2975 10.2125
1 -2.0425 -16.34 10.2125
1 -2.0425 -14.2975 8.17
1 0 -16.34 8.17
1 0 -14.2975 10.2125
1 2.0425 -16.34 10.2125
1 2.0425 -14.2975 8.17
1 4.085 -16.34 8.17
1 4.085 -14.2975 10.2125
1 6.1275 -16.34 10.2125
1 6.1275 -14.2975 8.17
1 8.17 -16.34 8.17
1 8.17 -14.2975 10.2125
1 10.2125 -14.2975 8.17
1 -14.2975 -10.2125 8.17
1 -12.255 -12.255 8.17
1 -12.255 -10.2125 10.2125
1 -10.2125 -12.255 10.2125
1 -10.2125 -10.2125 8.17
1 -8.17 -12.255 8.17
1 -8.17 -10.2125 10.2125
1 -6.1275 -12.255 10.2125
1 6.1275 -12.255 10.2125
1 8.17 -12.255 8.17
1 8.17 -10.2125 10.2125
1 10.2125 -12.255 10.2125
1 10.2125 -10.2125 8.17
1 12.255 -12.255 8.17
1 12.255 -10.2125 10.2125
1 14.2975 -10.2125 8.17
1 -18.3825 -6.1275 8.17
1 -16.34 -8.17 8.17
1 -16.34 -6.1275 10.2125
1 -14.2975 -8.17 10.2125
1 -14.2975 -6.1275 8.17
1 -12.255 -8.17 8.17
1 -12.255 -6.1275 10.2125
1 -10.2125 -8.17 10.2125
1 10.2125 -8.17 10.2125
1 12.255 -8.17 8.17
1 12.255 -6.1275 10.2125
1 14.2975 -8.17 10.2125
1 14.2975 -6.1275 8.17
1 16.34 -8.17 8.17
1 16.34 -6.1275 10.2125
1 18.3825 -6.1275 8.17
1 -18.3825 -4.085 10.2125
1 -18.3825 -2.0425 8.17
1 -16.34 -4.085 8.17
1 -16.34 -2.0425 10.2125
1 -14.2975 -4.085 10.2125
1 14.2975 -4.085 10.2125
1 16.34 -4.085 8.17
1 16.34 -2.0425 10.2125
1 18.3825 -4.085 10.2125
1 18.3825 -2.0425 8.17
1 -20.425 0 8.17
1 -18.3825 0 10.2125
1 -18.3825 2.0425 8.17
1 -16.34 0 8.17
1 -16.34 2.0425 10.2125
1 16.34 0 8.17
1 16.34 2.0425 10.2125
1 18.3825 0 10.2125
1 18.3825 2.0425 8.17
1 20.425 0 8.17
1 -18.3825 4.085 10.2125
1 -18.3825 6.1275 8.17
1 -16.34 4.085 8.17
1 -16.34 6.1275 10.2125
1 -14.2975 4.085 10.2125
1 -14.2975 6.1275 8.17
1 -12.255 6.1275 10.2125
1 12.255 6.1275 10.2125
1 14.2975 4.085 10.2125
1 14.2975 6.1275 8.17
1 16.34 4.085 8.17
1 16.34 6.1275 10.2125
1 18.3825 4.085 10.2125
1 18.3825 6.1275 8.17
1 -16.34 8.17 8.17
1 -14.2975 8.17 10.2125
1 -14.2975 10.2125 8.17
1 -12.255 8.17 8.17
1 -12.255 10.2125 10.2125
1 -10.2125 8.17 10.2125
1 -10.2125 10.2125 8.17
1 -8.17 10.2125 10.2125
1 8.17 10.2125 10.2125
1 10.2125 8.17 10.2125
1 10.2125 10.2125 8.17
1 12.255 8.17 8.17
1 12.255 10.2125 10.2125
1 14.2975 8.17 10.2125
1 14.2975 10.2125 8.17
1 16.34 8.17 8.17
1 -12.255 12.255 8.17
1 -10.2125 12.255 10.2125
1 -10.2125 14.2975 8.17
1 -8.17 12.255 8.17
1 -8.17 14.2975 10.2125
1 -6.1275 12.255 10.2125
1 -6.1275 14.2975 8.17
1 -4.085 14.2975 10.2125
1 -2.0425 14.2975 8.17
1 0 14.2975 10.2125
1 2.0425 14.2975 8.17
1 4.085 14.2975 10.2125
1 6.1275 12.255 10.2125
1 6.1275 14.2975 8.17
1 8.17 12.255 8.17
1 8.17 14.2975 10.2125
1 10.2125 12.255 10.2125
1 10.2125 14.2975 8.17
1 12.255 12.255 8.17
1 -8.17 16.34 8.17
1 -6.1275 16.34 10.2125
1 -4.085 16.34 8.17
1 -2.0425 16.34 10.2125
1 0 16.34 8.17
1 2.0425 16.34 10.2125
1 4.085 16.34 8.17
1 6.1275 16.34 10.2125
1 8.17 16.34 8.17
1 -6.1275 -14.2975 12.255
1 -4.085 -16.34 12.255
1 -4.085 -14.2975 14.2975
1 -2.0425 -14.2975 12.255
1 0 -16.34 12.255
1 0 -14.2975 14.2975
1 2.0425 -14.2975 12.255
1 4.085 -16.34 12.255
1 4.085 -14.2975 14.2975
1 6.1275 -14.2975 12.255
1 -10.2125 -10.2125 12.255
1 -8.17 -12.255 12.255
1 -8.17 -10.2125 14.2975
1 -6.1275 -12.255 14.2975
1 -6.1275 -10.2125 12.255
1 -4.085 -12.255 12.255
1 -4.085 -10.2125 14.2975
1 -2.0425 -12.255 14.2975
1 0 -12.255 12.255
1 2.0425 -12.255 14.2975
1 4.085 -12.255 12.255
1 4.085 -10.2125 14.2975
1 6.1275 -12.255 14.2975
1 6.1275 -10.2125 12.255
1 8.17 -12.255 12.255
1 8.17 -10.2125 14.2975
1 10.2125 -10.2125 12.255
1 -14.2975 -6.1275 12.255
1 -12.255 -8.17 12.255
1 -12.255 -6.1275 14.2975
1 -10.2125 -8.17 14.2975
1 -10.2125 -6.1275 12.255
1 -8.17 -8.17 12.255
1 -8.17 -6.1275 14.2975
1 -6.1275 -8.17 14.2975
1 6.1275 -8.17 14.2975
1 8.17 -8.17 12.255
1 8.17 -6.1275 14.2975
1 10.2125 -8.17 14.2975
1 10.2125 -6.1275 12.255
1 12.255 -8.17 12.255
1 12.255 -6.1275 14.2975
1 14.2975 -6.1275 12.255
1 -18.3825 -2.0425 12.255
1 -16.34 -4.085 12.255
1 -16.34 -2.0425 14.2975
1 -14.2975 -4.085 14.2975
1 -14.2975 -2.0425 12.255
1 -12.255 -4.085 12.255
1 -12.255 -2.0425 14.2975
1 -10.2125 -4.085 14.2975
1 -8.17 -2.0425 14.2975
1 -6.1275 -4.085 14.2975
1 6.1275 -4.085 14.2975
1 8.17 -2.0425 14.2975
1 10.2125 -4.085 14.2975
1 12.255 -4.085 12.255
1 12.255 -2.0425 14.2975
1 14.2975 -4.085 14.2975
1 14.2975 -2.0425 12.255
1 16.34 -4.085 12.255
1 16.34 -2.0425 14.2975
1 18.3825 -2.0425 12.255
1 -20.425 0 12.255
1 -18.3825 2.0425 12.255
1 -16.34 0 12.255
1 -16.34 2.0425 14.2975
1 -14.2975 0 14.2975
1 -14.2975 2.0425 12.255
1 -12.255 0 12.255
1 -12.255 2.0425 14.2975
1 -10.2125 0 14.2975
1 -8.17 2.0425 14.2975
1 -6.1275 0 14.2975
1 6.1275 0 14.2975
1 8.17 2.0425 14.2975
1 10.2125 0 14.2975
1 12.255 0 12.255
1 12.255 2.0425 14.2975
1 14.2975 0 14.2975
1 14.2975 2.0425 12.255
1 16.34 0 12.255
1 16.34 2.0425 14.2975
1 18.3825 2.0425 12.255
1 20.425 0 12.255
1 -16.34 4.085 12.255
1 -14.2975 4.085 14.2975
1 -14.2975 6.1275 12.255
1 -12.255 4.085 12.255
1 -12.255 6.1275 14.2975
1 -10.2125 4.085 14.2975
1 -10.2125 6.1275 12.255
1 -8.17 6.1275 14.2975
1 -6.1275 4.085 14.2975
1 6.1275 4.085 14.2975
1 8.17 6.1275 14.2975
1 10.2125 4.085 14.2975
1 10.2125 6.1275 12.255
1 12.255 4.085 12.255
1 12.255 6.1275 14.2975
1 14.2975 4.085 14.2975
1 14.2975 6.1275 12.255
1 16.34 4.085 12.255
1 -12.255 8.17 12.255
1 -10.2125 8.17 14.2975
1 -10.2125 10.2125 12.255
1 -8.17 8.17 12.255
1 -8.17 10.2125 14.2975
1 -6.1275 8.17 14.2975
1 -6.1275 10.2125 12.255
1 -4.085 10.2125 14.2975
1 4.085 10.2125 14.2975
1 6.1275 8.17 14.2975
1 6.1275 10.2125 12.255
1 8.17 8.17 12.255
1 8.17 10.2125 14.2975
1 10.2125 8.17 14.2975
1 10.2125 10.2125 12.255
1 12.255 8.17 12.255
1 -8.17 12.255 12.255
1 -6.1275 12.255 14.2975
1 -6.1275 14.2975 12.255
1 -4.085 12.255 12.255
1 -4.085 14.2975 14.2975
1 -2.0425 12.255 14.2975
1 -2.0425 14.2975 12.255
1 0 12.255 12.255
1 0 14.2975 14.2975
1 2.0425 12.255 14.2975
1 2.0425 14.2975 12.255
1 4.085 12.255 12.255
1 4.085 14.2975 14.2975
1 6.1275 12.255 14.2975
1 6.1275 14.2975 12.255
1 8.17 12.255 12.255
1 -4.085 16.34 12.255
1 0 16.34 12.255
1 4.085 16.34 12.255
1 -2.0425 -14.2975 16.34
1 2.0425 -14.2975 16.34
1 -6.1275 -10.2125 16.34
1 -4.085 -12.255 16.34
1 -4.085 -10.2125 18.3825
1 -2.0425 -12.255 18.3825
1 -2.0425 -10.2125 16.34
1 0 -12.255 16.34
1 0 -10.2125 18.3825
1 2.0425 -12.255 18.3825
1 2.0425 -10.2125 16.34
1 4.085 -12.255 16.34
1 4.085 -10.2125 18.3825
1 6.1275 -10.2125 16.34
1 -10.2125 -6.1275 16.34
1 -8.17 -8.17 16.34
1 -6.1275 -8.17 18.3825
1 -6.1275 -6.1275 16.34
1 -4.085 -8.17 16.34
1 -4.085 -6.1275 18.3825
1 -2.0425 -8.17 18.3825
1 -2.0425 -6.1275 16.34
1 0 -8.17 16.34
1 0 -6.1275 18.3825
1 2.0425 -8.17 18.3825
1 2.0425 -6.1275 16.34
1 4.085 -8.17 16.34
1 4.085 -6.1275 18.3825
1 6.1275 -8.17 18.3825
1 6.1275 -6.1275 16.34
1 8.17 -8.17 16.34
1 10.2125 -6.1275 16.34
1 -12.255 -4.085 16.34
1 -10.2125 -2.0425 16.34
1 -8.17 -4.085 16.34
1 -6.1275 -4.085 18.3825
1 -6.1275 -2.0425 16.34
1 -4.085 -4.085 16.34
1 -4.085 -2.0425 18.3825
1 -2.0425 -4.085 18.3825
1 -2.0425 -2.0425 16.34
1 0 -4.085 16.34
1 0 -2.0425 18.3825
1 2.0425 -4.085 18.3825
1 2.0425 -2.0425 16.34
1 4.085 -4.085 16.34
1 4.085 -2.0425 18.3825
1 6.1275 -4.085 18.3825
1 6.1275 -2.0425 16.34
1 8.17 -4.085 16.34
1 10.2125 -2.0425 16.34
1 12.255 -4.085 16.34
1 -12.255 0 16.34
1 -10.2125 2.0425 16.34
1 -8.17 0 16.34
1 -6.1275 0 18.3825
1 -6.1275 2.0425 16.34
1 -4.085 0 16.34
1 -4.085 2.0425 18.3825
1 -2.0425 0 18.3825
1 -2.0425 2.0425 16.34
1 0 0 16.34
1 0 2.0425 18.3825
1 2.0425 0 18.3825
1 2.0425 2.0425 16.34
1 4.085 0 16.34
1 4.085 2.0425 18.3825
1 6.1275 0 18.3825
1 6.1275 2.0425 16.34
1 8.17 0 16.34
1 10.2125 2.0425 16.34
1 12.255 0 16.34
1 -12.255 4.085 16.34
1 -10.2125 6.1275 16.34
1 -8.17 4.085 16.34
1 -6.1275 4.085 18.3825
1 -6.1275 6.1275 16.34
1 -4.085 4.085 16.34
1 -4.085 6.1275 18.3825
1 -2.0425 4.085 18.3825
1 -2.0425 6.1275 16.34
1 0 4.085 16.34
1 0 6.1275 18.3825
1 2.0425 4.085 18.3825
1 2.0425 6.1275 16.34
1 4.085 4.085 16.34
1 4.085 6.1275 18.3825
1 6.1275 4.085 18.3825
1 6.1275 6.1275 16.34
1 8.17 4.085 16.34
1 10.2125 6.1275 16.34
1 12.255 4.085 16.34
1 -8.17 8.17 16.34
1 -6.1275 8.17 18.3825
1 -6.1275 10.2125 16.34
1 -4.085 8.17 16.34
1 -4.085 10.2125 18.3825
1 -2.0425 8.17 18.3825
1 -2.0425 10.2125 16.34
1 0 8.17 16.34
1 0 10.2125 18.3825
1 2.0425 8.17 18.3825
1 2.0425 10.2125 16.34
1 4.085 8.17 16.34
1 4.085 10.2125 18.3825
1 6.1275 8.17 18.3825
1 6.1275 10.2125 16.34
1 8.17 8.17 16.34
1 -4.085 12.255 16.34
1 -2.0425 12.255 18.3825
1 -2.0425 14.2975 16.34
1 0 12.255 16.34
1 2.0425 12.255 18.3825
1 2.0425 14.2975 16.34
1 4.085 12.255 16.34
1 0 -12.255 20.425
1 0 -8.17 20.425
1 0 -4.085 20.425
1 0 0 20.425
1 0 4.085 20.425
1 0 8.17 20.425
1 0 12.255 20.425
4 -2.20232 15.8714 13.5271
2 -2.71714 17.1146 14.7701
2 -2.76197 18.6103 14.3732
2 -3.28692 19.4256 15.5814
2 -3.46101 20.9252 15.2509
2 -3.83754 21.713 16.5289
2 -3.67771 23.2318 16.317
2 -3.90978 23.9871 17.6465
2 -3.8858 25.5116 17.4199
2 -4.5226 26.2446 18.6177
2 -4.29327 27.7669 18.4899
2 -5.08546 28.5163 19.5774
3 -4.83411 30.0347 19.4656
4 -13.6241 -6.23825 16.0131
2 -15.0916 -6.38461 17.0793
2 -15.6274 -7.80307 17.348
2 -16.98 -7.66443 18.069
2 -17.5569 -9.04042 18.452
2 -18.7015 -8.83829 19.4599
2 -19.2733 -10.1867 19.9245
2 -20.5521 -9.92589 20.747
2 -21.2342 -11.246 21.1204
2 -22.4592 -10.9536 22.0077
2 -23.193 -12.2685 22.3395
2 -24.5126 -11.9553 23.0617
3 -25.1849 -13.2627 23.5368
4 10.1302 16.4588 -8.72174
2 11.507 16.7339 -9.88563
2 11.4406 18.0084 -10.7636
2 12.7133 18.1141 -11.6406
2 12.6971 19.3922 -12.5152
2 13.972 19.4715 -13.3877
2 14.0051 20.7832 -14.2049
2 15.2323 20.8003 -15.1428
2 15.2614 22.0937 -15.9838
2 16.3169 21.98 -17.1032
2 16.8066 23.3853 -17.5107
2 17.6721 23.2963 -18.7846