LAMMPS data file via write_data, version 29 Aug 2015, timestep = 423

3795 atoms
6 atom types
1200 bonds
5 bond types
1050 angles
5 angle types
900 dihedrals
5 dihedral types

-2.0809999999999999e+01 1.4081000000000000e+02 xlo xhi
-2.0507500000000000e+01 1.4050749999999999e+02 ylo yhi
-2.0045500000000001e+01 1.4004550000000000e+02 zlo zhi

Masses

1 107.868
2 12.0112
3 12.0112
4 32.064
5 15.9994
6 1.00797

Bond Coeffs # class2

1 1.53 299.67 -501.77 679.81
2 1.53 299.67 -501.77 679.81
3 1.823 225.277 -327.706 488.972
4 1.42 400.395 -835.195 1313.01
5 0.965 532.506 -1282.9 2004.77

Angle Coeffs # class2

1 112.67 39.516 -7.443 -9.5583
2 112.67 39.516 -7.443 -9.5583
3 112.564 47.0276 -10.679 -10.1687
4 105.8 52.7061 -12.109 -9.8681
5 111.27 54.5381 -8.3642 -13.0838

BondBond Coeffs

1 0 1.53 1.53
2 0 1.53 1.53
3 10.9186 1.53 1.823
4 -9.6879 1.42 0.965
5 11.4318 1.53 1.42

BondAngle Coeffs

1 8.016 8.016 1.53 1.53
2 8.016 8.016 1.53 1.53
3 -3.5621 22.3865 1.53 1.823
4 28.58 18.9277 1.42 0.965
5 2.6868 20.4033 1.53 1.42

Dihedral Coeffs # class2

1 0 0 0.0514 0 -0.143 0
2 0 0 0.0514 0 -0.143 0
3 -0.7017 0 0.0201 0 0.104 0
4 0 0 0 0 0.158 0
5 -0.6732 0 -0.4778 0 -0.167 0

AngleAngleTorsion Coeffs

1 -22.045 112.67 112.67
2 -22.045 112.67 112.67
3 -26.71 112.564 112.67
4 0 112.564 111.27
5 -12.1038 105.8 111.27

EndBondTorsion Coeffs

1 -0.0732 0 0 -0.0732 0 0 1.53 1.53
2 -0.0732 0 0 -0.0732 0 0 1.53 1.53
3 -0.7991 -0.959 0.5855 -0.1586 -0.7244 -0.2608 1.823 1.53
4 0 0 0 0 0 0 1.823 1.42
5 0 0.5343 0.9025 -0.58 0.9004 0 0.965 1.53

MiddleBondTorsion Coeffs

1 -17.787 -7.1877 0 1.53
2 -17.787 -7.1877 0 1.53
3 -4.2593 -5.6468 -3.3835 1.53
4 0 0 0 1.53
5 1.2472 0 0.7485 1.42

BondBond13 Coeffs

1 0 1.53 1.53
2 0 1.53 1.53
3 0 1.823 1.53
4 0 1.823 1.42
5 0 0.965 1.53

AngleTorsion Coeffs

1 0.3886 -0.3139 0.1389 0.3886 -0.3139 0.1389 112.67 112.67
2 0.3886 -0.3139 0.1389 0.3886 -0.3139 0.1389 112.67 112.67
3 1.1179 0.3638 0.9423 -2.0927 -0.1498 -1.7848 112.564 112.67
4 0 0 0 0 0 0 112.564 111.27
5 0.8726 -0.3577 0.3888 -3.5903 2.5225 0.4888 105.8 111.27

Atoms # full

3747 2591 3 0.0000000000000000e+00 6.5557248436098078e+01 5.5031289366195686e+01 2.6361604940263327e+01 0 0 0
3773 2593 3 0.0000000000000000e+00 6.1882292774040160e+01 6.8975850618389430e+01 2.5376065001402424e+01 0 0 0
3649 2581 3 0.0000000000000000e+00 5.1170578227271804e+01 4.5692609624369382e+01 3.0600051853535692e+01 0 0 0
3662 2582 3 0.0000000000000000e+00 6.2392977121763231e+01 4.2493351852182165e+01 2.9053412245189048e+01 0 0 0
3663 2582 2 0.0000000000000000e+00 6.2297267209238996e+01 4.3856403465917666e+01 3.1195322435899445e+01 0 0 0
3665 2582 2 0.0000000000000000e+00 6.1522496166145402e+01 4.3291380997038601e+01 3.0025517770792003e+01 0 0 0
3667 2582 2 0.0000000000000000e+00 6.1424892842423858e+01 4.4582060000204528e+01 3.2194618879955542e+01 0 0 0
3650 2581 2 0.0000000000000000e+00 5.2339204047751295e+01 4.6899608995865314e+01 3.2500710778038183e+01 0 0 0
3652 2581 2 0.0000000000000000e+00 5.2291215717892122e+01 4.6649600756246556e+01 3.1009969530907835e+01 0 0 0
3654 2581 2 0.0000000000000000e+00 5.3450587097793274e+01 4.7832416429813847e+01 3.2925985141622206e+01 0 0 0
3675 2583 3 0.0000000000000000e+00 7.1730121779765042e+01 4.6772389801387320e+01 3.0341785539970743e+01 0 0 0
3676 2583 2 0.0000000000000000e+00 7.0597826656958446e+01 4.8195058785181601e+01 3.2113279612354766e+01 0 0 0
3678 2583 2 0.0000000000000000e+00 7.1153973325427529e+01 4.6833964061649318e+01 3.1757748184920846e+01 0 0 0
3734 2590 3 0.0000000000000000e+00 5.5747361531218850e+01 5.6253700478313931e+01 2.6975697128263228e+01 0 0 0
3735 2590 2 0.0000000000000000e+00 5.6629446463155958e+01 5.6242667739654969e+01 2.9355532313825158e+01 0 0 0
3737 2590 2 0.0000000000000000e+00 5.5825039225902586e+01 5.5505880946036541e+01 2.8307830264827242e+01 0 0 0
3739 2590 2 0.0000000000000000e+00 5.6698385453064667e+01 5.5519211385597075e+01 3.0681347708065292e+01 0 0 0
3736 2590 2 0.0000000000000000e+00 5.7366143412243048e+01 5.6322224070262834e+01 3.1774042724862262e+01 0 0 0
3741 2590 2 0.0000000000000000e+00 5.7170918649500706e+01 5.5730302998926142e+01 3.3150667639186928e+01 0 0 0
3748 2591 2 0.0000000000000000e+00 6.4875915424458512e+01 5.5232380016062095e+01 2.8802777584632842e+01 0 0 0
3750 2591 2 0.0000000000000000e+00 6.5015698500617290e+01 5.4321239048995977e+01 2.7603342317291709e+01 0 0 0
3752 2591 2 0.0000000000000000e+00 6.4331133974632820e+01 5.4522228338448713e+01 3.0021053685393692e+01 0 0 0
3749 2591 2 0.0000000000000000e+00 6.4038664000416262e+01 5.5421284955760306e+01 3.1201353467289064e+01 0 0 0
3754 2591 2 0.0000000000000000e+00 6.3341207025135212e+01 5.4671571872149968e+01 3.2313188426785771e+01 0 0 0
3631 2579 3 0.0000000000000000e+00 4.4827188864218265e+01 6.4638585719437785e+01 3.0723587703426865e+01 0 0 0
3632 2579 2 0.0000000000000000e+00 4.5833643239265115e+01 6.4248609843972758e+01 3.3020460949830152e+01 0 0 0
3634 2579 2 0.0000000000000000e+00 4.4614499117475603e+01 6.4098199725323980e+01 3.2138438461046803e+01 0 0 0
3721 2589 3 0.0000000000000000e+00 5.4828545905657940e+01 6.4522451341359996e+01 2.7190129568228198e+01 0 0 0
3722 2589 2 0.0000000000000000e+00 5.5559618226644851e+01 6.4515632245177983e+01 2.9619535339576398e+01 0 0 0
3724 2589 2 0.0000000000000000e+00 5.4647527398553152e+01 6.5130716441265804e+01 2.8581922542051348e+01 0 0 0
3726 2589 2 0.0000000000000000e+00 5.5553669270502404e+01 6.5248460512194256e+01 3.0942036201428966e+01 0 0 0
3723 2589 2 0.0000000000000000e+00 5.6543004875489032e+01 6.4698669542983708e+01 3.1944461745961764e+01 0 0 0
3728 2589 2 0.0000000000000000e+00 5.6707949169280354e+01 6.5581940812597480e+01 3.3160117415875476e+01 0 0 0
3760 2592 3 0.0000000000000000e+00 6.8199511977465406e+01 6.3451327602056502e+01 2.7402830503848790e+01 0 0 0
3761 2592 2 0.0000000000000000e+00 6.7622888111240044e+01 6.3073086080403058e+01 2.9849650824865666e+01 0 0 0
3763 2592 2 0.0000000000000000e+00 6.8627662070505053e+01 6.2847561708385214e+01 2.8741680521766440e+01 0 0 0
3765 2592 2 0.0000000000000000e+00 6.8071307783644556e+01 6.2511038733622769e+01 3.1178903230012683e+01 0 0 0
3762 2592 2 0.0000000000000000e+00 6.7126259570783617e+01 6.2782339912130766e+01 3.2326833105849673e+01 0 0 0
3693 2585 3 0.0000000000000000e+00 7.8590002940020213e+01 6.4821546675688623e+01 3.0607619409652781e+01 0 0 0
3694 2585 2 0.0000000000000000e+00 7.7111828226323937e+01 6.4881860867100272e+01 3.2666447379331693e+01 0 0 0
3696 2585 2 0.0000000000000000e+00 7.8454140866575187e+01 6.4484964322012146e+01 3.2093712360036946e+01 0 0 0
3774 2593 2 0.0000000000000000e+00 6.1715839174938814e+01 6.8525291201662938e+01 2.7867714685100424e+01 0 0 0
3776 2593 2 0.0000000000000000e+00 6.2468566652203450e+01 6.9235276676104007e+01 2.6764729846868491e+01 0 0 0
3778 2593 2 0.0000000000000000e+00 6.2279212835431672e+01 6.8785042770011870e+01 2.9246326489414862e+01 0 0 0
3775 2593 2 0.0000000000000000e+00 6.1511766164199948e+01 6.8106429388236563e+01 3.0358241729678237e+01 0 0 0
3777 2593 2 0.0000000000000000e+00 6.1160022432254713e+01 6.7969052399270652e+01 3.2870865826126355e+01 0 0 0
3780 2593 2 0.0000000000000000e+00 6.1986647228314716e+01 6.8519873343677588e+01 3.1732220153203134e+01 0 0 0
3523 2567 3 0.0000000000000000e+00 4.6728436494381697e+01 3.9090414059184916e+01 3.7189097311148252e+01 0 0 0
3544 2569 2 0.0000000000000000e+00 6.6605318375444170e+01 3.6884231403476434e+01 3.7534868430379717e+01 0 0 0
3546 2569 2 0.0000000000000000e+00 6.5935238413610421e+01 3.8733472726748133e+01 3.9130318425589259e+01 0 0 0
3541 2569 3 0.0000000000000000e+00 6.7748660599372428e+01 3.6020472304991273e+01 3.6999581337540548e+01 0 0 0
3542 2569 2 0.0000000000000000e+00 6.7053414197072726e+01 3.7870734734567300e+01 3.8590065789084065e+01 0 0 0
3524 2567 2 0.0000000000000000e+00 4.8146194168113524e+01 4.0596969660356315e+01 3.8661613070450102e+01 0 0 0
3526 2567 2 0.0000000000000000e+00 4.7620336285271463e+01 4.0330529477941511e+01 3.7268781702723160e+01 0 0 0
3528 2567 2 0.0000000000000000e+00 4.8936253916073959e+01 4.1881518500477533e+01 3.8770274194440717e+01 0 0 0
3664 2582 2 0.0000000000000000e+00 6.2169696726845103e+01 4.5106849519398125e+01 3.3401435898538644e+01 0 0 0
3666 2582 2 0.0000000000000000e+00 6.1939109416656621e+01 4.6144474883805003e+01 3.5712417532356369e+01 0 0 0
3669 2582 2 0.0000000000000000e+00 6.1243342534446654e+01 4.5659908140510474e+01 3.4460849246741660e+01 0 0 0
3671 2582 2 0.0000000000000000e+00 6.0974759858977755e+01 4.6399662468976544e+01 3.6848977540791289e+01 0 0 0
3651 2581 2 0.0000000000000000e+00 5.3515010542083587e+01 4.8045358341538467e+01 3.4421346101991467e+01 0 0 0
3653 2581 2 0.0000000000000000e+00 5.4667949449481178e+01 4.9198129423876942e+01 3.6348658342675023e+01 0 0 0
3656 2581 2 0.0000000000000000e+00 5.4622122836212824e+01 4.8979688456344334e+01 3.4853729043072143e+01 0 0 0
3655 2581 2 0.0000000000000000e+00 5.5584432713150719e+01 5.0573408351920165e+01 3.8251153778258562e+01 0 0 0
3658 2581 2 0.0000000000000000e+00 5.5684571367780009e+01 5.0228670129896763e+01 3.6783320614954242e+01 0 0 0
3660 2581 2 0.0000000000000000e+00 5.6415309998494521e+01 5.1769596956255647e+01 3.8651607683520368e+01 0 0 0
3668 2582 2 0.0000000000000000e+00 6.1629398938204645e+01 4.6884839339120980e+01 3.8121665864794231e+01 0 0 0
3673 2582 2 0.0000000000000000e+00 6.0736613917214420e+01 4.6757473325007126e+01 3.9335887794191166e+01 0 0 0
3681 2583 2 0.0000000000000000e+00 6.6685455247146592e+01 5.2273809560508461e+01 3.7223931006845646e+01 0 0 0
3686 2583 2 0.0000000000000000e+00 6.5630636351622869e+01 5.2167235911577507e+01 3.8302696716961002e+01 0 0 0
3680 2583 2 0.0000000000000000e+00 6.9901458862240460e+01 4.8236956526810708e+01 3.3455341151862413e+01 0 0 0
3677 2583 2 0.0000000000000000e+00 6.9331038158817790e+01 4.9594668894811960e+01 3.3801163101887781e+01 0 0 0
3679 2583 2 0.0000000000000000e+00 6.7998353802028220e+01 5.0961518142278123e+01 3.5476206656049463e+01 0 0 0
3682 2583 2 0.0000000000000000e+00 6.8517643027565782e+01 4.9597475208246372e+01 3.5076671152827046e+01 0 0 0
3684 2583 2 0.0000000000000000e+00 6.7110364789071596e+01 5.0918975124905032e+01 3.6700278189634943e+01 0 0 0
3505 2565 3 0.0000000000000000e+00 3.5348691596786530e+01 5.7086272811982553e+01 3.6398159161109831e+01 0 0 0
3506 2565 2 0.0000000000000000e+00 3.6913338138317684e+01 5.7202511105835669e+01 3.8387849407181044e+01 0 0 0
3508 2565 2 0.0000000000000000e+00 3.6440700053816720e+01 5.6384390873398694e+01 3.7207271410002058e+01 0 0 0
3510 2565 2 0.0000000000000000e+00 3.7975728480596139e+01 5.6523705131105302e+01 3.9222351264370438e+01 0 0 0
3738 2590 2 0.0000000000000000e+00 5.7502438555062227e+01 5.6692286256155178e+01 3.4266892641389397e+01 0 0 0
3740 2590 2 0.0000000000000000e+00 5.7266420213798469e+01 5.7246842230808220e+01 3.6714072528411130e+01 0 0 0
3743 2590 2 0.0000000000000000e+00 5.6955520839055666e+01 5.6265714987726817e+01 3.5609029930532820e+01 0 0 0
3745 2590 2 0.0000000000000000e+00 5.6893230305142652e+01 5.6742522456500161e+01 3.8086625993077064e+01 0 0 0
3742 2590 2 0.0000000000000000e+00 5.7580063757780572e+01 5.7493745929234130e+01 3.9198260508751169e+01 0 0 0
3751 2591 2 0.0000000000000000e+00 6.2876487242895500e+01 5.5508170401524602e+01 3.3483281632327966e+01 0 0 0
3753 2591 2 0.0000000000000000e+00 6.1562313986485243e+01 5.5348224616346258e+01 3.5682185862573156e+01 0 0 0
3756 2591 2 0.0000000000000000e+00 6.1919132211679042e+01 5.4725542206065100e+01 3.4352213702863274e+01 0 0 0
3758 2591 2 0.0000000000000000e+00 6.0620084173431060e+01 5.4461240562823605e+01 3.6464212625196019e+01 0 0 0
3683 2583 2 0.0000000000000000e+00 6.5386831210343047e+01 5.3443666292437186e+01 3.9080131371941583e+01 0 0 0
3755 2591 2 0.0000000000000000e+00 6.0318683471774357e+01 5.4959120394222346e+01 3.7904950165517661e+01 0 0 0
3759 2591 2 0.0000000000000000e+00 6.1513882162548335e+01 5.5577194426203164e+01 3.8625207636413116e+01 0 0 0
3787 2594 2 0.0000000000000000e+00 6.1211038990879750e+01 5.9603799993585007e+01 3.8662505106842538e+01 0 0 0
3788 2594 2 0.0000000000000000e+00 6.2559573273481590e+01 5.9632384638869077e+01 3.7932494922636806e+01 0 0 0
3691 2584 6 4.0000000000000002e-01 7.0905814062738528e+01 5.6253948491652871e+01 3.9739097644911475e+01 0 0 0
3636 2579 2 0.0000000000000000e+00 4.5662331280428489e+01 6.3636493087215648e+01 3.4392220194575010e+01 0 0 0
3633 2579 2 0.0000000000000000e+00 4.6865920146212169e+01 6.3807296899881010e+01 3.5291146106512322e+01 0 0 0
3635 2579 2 0.0000000000000000e+00 4.7822255013984332e+01 6.3432294641221965e+01 3.7605428624385453e+01 0 0 0
3638 2579 2 0.0000000000000000e+00 4.6708184973783375e+01 6.3125514748379807e+01 3.6631112277249287e+01 0 0 0
3640 2579 2 0.0000000000000000e+00 4.7672662756209249e+01 6.2719038072317460e+01 3.8929831764863302e+01 0 0 0
3637 2579 2 0.0000000000000000e+00 4.8753918871907125e+01 6.3075372434208674e+01 3.9923464481155897e+01 0 0 0
3725 2589 2 0.0000000000000000e+00 5.7539507638789203e+01 6.4968360909142135e+01 3.4263706505190385e+01 0 0 0
3727 2589 2 0.0000000000000000e+00 5.7782242732901473e+01 6.5007379760888924e+01 3.6793045095246050e+01 0 0 0
3730 2589 2 0.0000000000000000e+00 5.7510378798095829e+01 6.5790925007409854e+01 3.5529808691397172e+01 0 0 0
3732 2589 2 0.0000000000000000e+00 5.7328909851280287e+01 6.5754472473017259e+01 3.8025819671655420e+01 0 0 0
3729 2589 2 0.0000000000000000e+00 5.7271887017612663e+01 6.4931237514488089e+01 3.9290358227986673e+01 0 0 0
3786 2594 5 -6.8500000000000005e-01 6.2940016242329683e+01 6.0959309717176488e+01 3.7605382180356536e+01 0 0 0
3789 2594 6 4.0000000000000002e-01 6.2587549374097733e+01 6.1125308943478949e+01 3.6721462007350638e+01 0 0 0
3766 2592 2 0.0000000000000000e+00 6.6642957269029367e+01 6.2413537905838474e+01 3.7380690540545856e+01 0 0 0
3768 2592 2 0.0000000000000000e+00 6.6588365597231899e+01 6.2533537549511216e+01 3.9901721038399593e+01 0 0 0
3764 2592 2 0.0000000000000000e+00 6.6791487202493101e+01 6.2543559134414167e+01 3.4844979722258820e+01 0 0 0
3767 2592 2 0.0000000000000000e+00 6.7683371717624212e+01 6.2303179835380334e+01 3.3647824927568266e+01 0 0 0
3769 2592 2 0.0000000000000000e+00 6.7477498969576558e+01 6.2179744637875821e+01 3.6142939106828372e+01 0 0 0
3771 2592 2 0.0000000000000000e+00 6.7444220094914755e+01 6.2325107890127832e+01 3.8659880724748952e+01 0 0 0
3699 2585 2 0.0000000000000000e+00 7.2485348643179762e+01 6.4899959317600079e+01 3.8674781606237609e+01 0 0 0
3695 2585 2 0.0000000000000000e+00 7.5568865740311409e+01 6.4890608868861662e+01 3.4663213801777424e+01 0 0 0
3697 2585 2 0.0000000000000000e+00 7.3960984409695342e+01 6.4811752263795071e+01 3.6612773166534204e+01 0 0 0
3698 2585 2 0.0000000000000000e+00 7.6925295116139893e+01 6.4503244025695636e+01 3.4118638036323929e+01 0 0 0
3700 2585 2 0.0000000000000000e+00 7.5306424231074288e+01 6.4389905222477296e+01 3.6065675170831099e+01 0 0 0
3702 2585 2 0.0000000000000000e+00 7.3675255831644449e+01 6.4263231756240543e+01 3.7992104828518883e+01 0 0 0
3779 2593 2 0.0000000000000000e+00 6.0702562790815783e+01 6.8108475365223228e+01 3.5362597278568053e+01 0 0 0
3782 2593 2 0.0000000000000000e+00 6.1419464909727296e+01 6.8696322146067629e+01 3.4170225646611641e+01 0 0 0
3784 2593 2 0.0000000000000000e+00 6.0756524416366169e+01 6.8992075847271693e+01 3.6587749624599198e+01 0 0 0
3781 2593 2 0.0000000000000000e+00 6.0233669872504407e+01 6.8293477760785805e+01 3.7835026715604450e+01 0 0 0
3785 2593 2 0.0000000000000000e+00 6.1241686211305662e+01 6.7311733960706988e+01 3.8433324467043569e+01 0 0 0
3569 2573 3 0.0000000000000000e+00 8.6069724174916715e+01 6.8000772234961602e+01 3.6247645294407043e+01 0 0 0
3570 2573 2 0.0000000000000000e+00 8.4573535514631558e+01 6.7410880154916129e+01 3.8210971585657504e+01 0 0 0
3572 2573 2 0.0000000000000000e+00 8.5975280495561663e+01 6.7746889845894813e+01 3.7753089361756075e+01 0 0 0
3574 2573 2 0.0000000000000000e+00 8.4471321018758815e+01 6.7127956857734404e+01 3.9692845574339827e+01 0 0 0
3716 2588 5 -6.8500000000000005e-01 5.5795039102587822e+01 7.4317789138850316e+01 3.9735274297248210e+01 0 0 0
3719 2588 6 4.0000000000000002e-01 5.6189183764487979e+01 7.4364632707868211e+01 3.8855816011961842e+01 0 0 0
3711 2587 5 -6.8500000000000005e-01 6.5649676984763801e+01 7.4667111013609940e+01 3.9781046382228972e+01 0 0 0
3714 2587 6 4.0000000000000002e-01 6.5548776449364880e+01 7.4356674254753173e+01 3.8873083425041393e+01 0 0 0
3482 2562 3 0.0000000000000000e+00 4.8866790126166528e+01 8.3157036004392680e+01 3.6320101707389334e+01 0 0 0
3485 2562 2 0.0000000000000000e+00 4.9137668477819076e+01 8.2873598273685772e+01 3.7798509696200419e+01 0 0 0
3483 2562 2 0.0000000000000000e+00 5.0167744897372721e+01 8.1787092200710575e+01 3.8007566083275364e+01 0 0 0
3484 2562 2 0.0000000000000000e+00 5.1184002612692140e+01 8.0133533972531410e+01 3.9617733373471104e+01 0 0 0
3487 2562 2 0.0000000000000000e+00 5.0330279574085438e+01 8.1369329476108845e+01 3.9450651193528564e+01 0 0 0
3613 2577 3 0.0000000000000000e+00 5.3678634421841501e+01 8.4760338907455591e+01 3.6510421840277814e+01 0 0 0
3614 2577 2 0.0000000000000000e+00 5.4102820672411291e+01 8.3197087677261834e+01 3.8459294768448999e+01 0 0 0
3616 2577 2 0.0000000000000000e+00 5.3455014402167535e+01 8.4482730568637905e+01 3.7997705194634250e+01 0 0 0
3618 2577 2 0.0000000000000000e+00 5.4108402016903213e+01 8.3022239606094146e+01 3.9960879840436768e+01 0 0 0
3600 2576 3 0.0000000000000000e+00 6.4234297362247247e+01 8.6509944610214134e+01 3.5887234125058782e+01 0 0 0
3602 2576 2 0.0000000000000000e+00 6.3327981494633434e+01 8.3131919388709733e+01 3.9556406474908449e+01 0 0 0
3601 2576 2 0.0000000000000000e+00 6.3690770429459398e+01 8.4872808147468703e+01 3.7750042903055345e+01 0 0 0
3603 2576 2 0.0000000000000000e+00 6.4385676252358664e+01 8.6160774166171151e+01 3.7368634021125189e+01 0 0 0
3605 2576 2 0.0000000000000000e+00 6.3905821272957120e+01 8.4481014552849402e+01 3.9194118414158893e+01 0 0 0
3587 2575 3 0.0000000000000000e+00 7.3435958729515818e+01 8.3007003738616959e+01 3.6643078241599682e+01 0 0 0
3588 2575 2 0.0000000000000000e+00 7.2446224155588169e+01 8.1466122652525272e+01 3.8396856367879742e+01 0 0 0
3590 2575 2 0.0000000000000000e+00 7.3161891578484983e+01 8.2771472244815357e+01 3.8129609983980629e+01 0 0 0
3592 2575 2 0.0000000000000000e+00 7.2066596662150516e+01 8.1258692916539815e+01 3.9845980871291189e+01 0 0 0
3395 2551 3 0.0000000000000000e+00 5.3796613847046721e+01 3.0295383540879026e+01 4.5734604146955938e+01 0 0 0
3398 2551 2 0.0000000000000000e+00 5.3805019434129669e+01 3.1821553574776217e+01 4.5631356952053864e+01 0 0 0
3382 2550 3 0.0000000000000000e+00 4.4009063871970234e+01 3.4139042045251450e+01 4.5163722839054465e+01 0 0 0
3385 2550 2 0.0000000000000000e+00 4.4929660825635928e+01 3.5350116371225177e+01 4.5322308146709730e+01 0 0 0
3543 2569 2 0.0000000000000000e+00 6.6396283996128730e+01 3.9737786729808484e+01 4.0162259628286904e+01 0 0 0
3525 2567 2 0.0000000000000000e+00 4.9392488315456433e+01 4.2200996410583230e+01 4.0175802849774328e+01 0 0 0
3527 2567 2 0.0000000000000000e+00 5.0443507795794837e+01 4.3928193208376378e+01 4.1705180975877333e+01 0 0 0
3530 2567 2 0.0000000000000000e+00 5.0003201540932174e+01 4.3578465310961604e+01 4.0301777541672820e+01 0 0 0
3532 2567 2 0.0000000000000000e+00 5.0876297165180716e+01 4.5369743138773551e+01 4.1849351483015539e+01 0 0 0
3529 2567 2 0.0000000000000000e+00 5.1373180862987738e+01 4.5725542747182935e+01 4.3232396826641754e+01 0 0 0
3536 2568 5 -6.8500000000000005e-01 5.8599495145087168e+01 4.4005236711330106e+01 4.4324826912848685e+01 0 0 0
3537 2568 2 0.0000000000000000e+00 5.9304187800904309e+01 4.4425981443458859e+01 4.6554026941874206e+01 0 0 0
3538 2568 2 0.0000000000000000e+00 5.9749197944017837e+01 4.4331723504690622e+01 4.5091558325728400e+01 0 0 0
3539 2568 6 4.0000000000000002e-01 5.8882066233980268e+01 4.3931555475604682e+01 4.3405199733668006e+01 0 0 0
3548 2569 2 0.0000000000000000e+00 6.5275414190336008e+01 4.0577908789973002e+01 4.0731313444966702e+01 0 0 0
3550 2569 2 0.0000000000000000e+00 6.4610803428681464e+01 4.2325709489608911e+01 4.2437012440169916e+01 0 0 0
3545 2569 2 0.0000000000000000e+00 6.5739537166477604e+01 4.1572974633999181e+01 4.1770297600431668e+01 0 0 0
3547 2569 2 0.0000000000000000e+00 6.5076655755081447e+01 4.3228817492707954e+01 4.3555623041440150e+01 0 0 0
3549 2569 2 0.0000000000000000e+00 6.4423371733469608e+01 4.4464803960519824e+01 4.5657124778367411e+01 0 0 0
3552 2569 2 0.0000000000000000e+00 6.3949475222858084e+01 4.3775414434176767e+01 4.4400616293173030e+01 0 0 0
3553 2569 2 0.0000000000000000e+00 6.3269125456080168e+01 4.4897301756126026e+01 4.6558919286354431e+01 0 0 0
3518 2566 5 -6.8500000000000005e-01 4.6505230968787750e+01 5.2079348446310497e+01 4.4915515732174526e+01 0 0 0
3531 2567 2 0.0000000000000000e+00 5.2693075095894514e+01 4.7445628160267397e+01 4.4531007785162330e+01 0 0 0
3534 2567 2 0.0000000000000000e+00 5.1781138046765371e+01 4.7174885280030743e+01 4.3360204349383082e+01 0 0 0
3520 2566 2 0.0000000000000000e+00 4.7478443026562836e+01 5.2462876684171427e+01 4.5875899914839806e+01 0 0 0
3521 2566 6 4.0000000000000002e-01 4.6945224123106037e+01 5.1503203557946158e+01 4.4278762525994701e+01 0 0 0
3657 2581 2 0.0000000000000000e+00 5.6046387597646763e+01 5.2322240711126284e+01 4.0007012572107840e+01 0 0 0
3533 2567 4 0.0000000000000000e+00 5.4015318929214295e+01 4.9686383609874916e+01 4.5570431212465671e+01 0 0 0
3535 2567 2 0.0000000000000000e+00 5.3751984132823530e+01 4.8497688684494008e+01 4.4206477858487467e+01 0 0 0
1 1 1 0.0000000000000000e+00 5.9326799999999999e+01 4.9478000000000002e+01 4.2748800000000003e+01 0 0 0
2 2 1 0.0000000000000000e+00 5.7254199999999997e+01 5.1557899999999997e+01 4.2889000000000003e+01 0 0 0
3 3 1 0.0000000000000000e+00 5.9217700000000001e+01 5.1583399999999997e+01 4.0965299999999999e+01 0 0 0
70 70 1 0.0000000000000000e+00 5.9324199999999998e+01 4.7432400000000001e+01 4.4668900000000001e+01 0 0 0
75 75 1 0.0000000000000000e+00 5.5163400000000003e+01 5.1221499999999999e+01 4.4786999999999999e+01 0 0 0
78 78 1 0.0000000000000000e+00 5.7240099999999998e+01 4.9266199999999998e+01 4.4820599999999999e+01 0 0 0
79 79 1 0.0000000000000000e+00 5.9390099999999997e+01 5.1255899999999997e+01 4.4861499999999999e+01 0 0 0
3670 2582 2 0.0000000000000000e+00 6.1344300505286100e+01 4.7379691026977497e+01 4.0588252701734419e+01 0 0 0
3672 2582 4 0.0000000000000000e+00 6.1285457400167715e+01 4.9519034619452128e+01 4.2357532033292536e+01 0 0 0
3674 2582 2 0.0000000000000000e+00 6.1264813500335464e+01 4.8904229442060902e+01 4.0616414115856379e+01 0 0 0
4 4 1 0.0000000000000000e+00 6.3509599999999999e+01 5.1626899999999999e+01 4.0731200000000001e+01 0 0 0
5 5 1 0.0000000000000000e+00 6.3276000000000003e+01 4.9396799999999999e+01 4.2660699999999999e+01 0 0 0
6 6 1 0.0000000000000000e+00 6.1335999999999999e+01 5.1478700000000003e+01 4.2680300000000003e+01 0 0 0
7 7 1 0.0000000000000000e+00 6.5265900000000002e+01 5.1289800000000000e+01 4.2867600000000003e+01 0 0 0
72 72 1 0.0000000000000000e+00 6.3346400000000003e+01 4.7481900000000003e+01 4.4714399999999998e+01 0 0 0
82 82 1 0.0000000000000000e+00 6.1324500000000000e+01 4.9351399999999998e+01 4.4845900000000000e+01 0 0 0
83 83 1 0.0000000000000000e+00 6.3357799999999997e+01 5.1248399999999997e+01 4.4967399999999998e+01 0 0 0
86 86 1 0.0000000000000000e+00 6.5501999999999995e+01 4.9303600000000003e+01 4.4970900000000000e+01 0 0 0
3555 2570 2 0.0000000000000000e+00 7.0332777308420106e+01 4.8250409104908108e+01 4.6017539780984713e+01 0 0 0
3556 2570 2 0.0000000000000000e+00 6.9519863931159250e+01 4.7497681971768259e+01 4.4959765948501044e+01 0 0 0
3557 2570 6 4.0000000000000002e-01 6.9584222533161167e+01 4.7348897816880658e+01 4.3028135028312363e+01 0 0 0
3554 2570 5 -6.8500000000000005e-01 7.0010554437718881e+01 4.7905433307201690e+01 4.3690957486869316e+01 0 0 0
87 87 1 0.0000000000000000e+00 6.7485699999999994e+01 5.1233600000000003e+01 4.4931899999999999e+01 0 0 0
3559 2571 5 -6.8500000000000005e-01 7.6130834057690763e+01 5.3176708822332550e+01 4.4579590261473541e+01 0 0 0
3561 2571 2 0.0000000000000000e+00 7.5470682241793881e+01 5.2590046501254541e+01 4.5691750821585302e+01 0 0 0
3562 2571 6 4.0000000000000002e-01 7.5755970897835724e+01 5.2779778864924396e+01 4.3784009901375512e+01 0 0 0
3507 2565 2 0.0000000000000000e+00 3.8449731809029039e+01 5.7375810782559157e+01 4.0377443641627416e+01 0 0 0
3512 2565 2 0.0000000000000000e+00 3.9496607896994384e+01 5.6712812746991432e+01 4.1242931971169057e+01 0 0 0
3509 2565 2 0.0000000000000000e+00 3.9870858370362548e+01 5.7540865150905006e+01 4.2450595696011710e+01 0 0 0
3514 2565 2 0.0000000000000000e+00 4.0757017686219555e+01 5.6815285799216248e+01 4.3435364072561107e+01 0 0 0
3511 2565 2 0.0000000000000000e+00 4.0767186990350744e+01 5.7455985907603683e+01 4.4803927282711420e+01 0 0 0
3516 2565 2 0.0000000000000000e+00 4.1479245142207773e+01 5.6629893670457356e+01 4.5849206308743810e+01 0 0 0
3644 2580 5 -6.8500000000000005e-01 5.0478946276068577e+01 5.5304018669376369e+01 4.1286102781302532e+01 0 0 0
3645 2580 2 0.0000000000000000e+00 5.0740696754147002e+01 5.7294441910922160e+01 4.2557483009082581e+01 0 0 0
3646 2580 2 0.0000000000000000e+00 4.9821732896059991e+01 5.6105534436488426e+01 4.2256995938413162e+01 0 0 0
3647 2580 6 4.0000000000000002e-01 4.9902388677441515e+01 5.4553243093528543e+01 4.1098962799010827e+01 0 0 0
3648 2580 4 0.0000000000000000e+00 5.1444567943575336e+01 5.7260448699540852e+01 4.4254146210540036e+01 0 0 0
9 9 1 0.0000000000000000e+00 5.3108600000000003e+01 5.5394199999999998e+01 4.3091500000000003e+01 0 0 0
21 21 1 0.0000000000000000e+00 5.3080900000000000e+01 5.9485399999999998e+01 4.2842199999999998e+01 0 0 0
91 91 1 0.0000000000000000e+00 5.1225999999999999e+01 5.5364100000000001e+01 4.5149999999999999e+01 0 0 0
94 94 1 0.0000000000000000e+00 5.3179000000000002e+01 5.3292400000000001e+01 4.4880800000000001e+01 0 0 0
117 117 1 0.0000000000000000e+00 4.9083100000000002e+01 5.7410299999999999e+01 4.5261099999999999e+01 0 0 0
118 118 1 0.0000000000000000e+00 5.1066200000000002e+01 5.9293599999999998e+01 4.4908200000000001e+01 0 0 0
121 121 1 0.0000000000000000e+00 5.3201599999999999e+01 5.7478200000000001e+01 4.5021099999999997e+01 0 0 0
3659 2581 4 0.0000000000000000e+00 5.7603482165998749e+01 5.3452004694297671e+01 4.2086328770736891e+01 0 0 0
3661 2581 2 0.0000000000000000e+00 5.6888787494355725e+01 5.3536008766019087e+01 4.0391817490549137e+01 0 0 0
3744 2590 4 0.0000000000000000e+00 5.7500365670554139e+01 5.7518220236194111e+01 4.2043831703454003e+01 0 0 0
3746 2590 2 0.0000000000000000e+00 5.6667292742246062e+01 5.7662124362095462e+01 4.0408875904372266e+01 0 0 0
8 8 1 0.0000000000000000e+00 5.5246000000000002e+01 5.3484600000000000e+01 4.2998399999999997e+01 0 0 0
10 10 1 0.0000000000000000e+00 5.9224499999999999e+01 5.5330800000000004e+01 4.0920900000000003e+01 0 0 0
11 11 1 0.0000000000000000e+00 5.9467399999999998e+01 5.3377099999999999e+01 4.2929299999999998e+01 0 0 0
12 12 1 0.0000000000000000e+00 5.7149600000000000e+01 5.5344799999999999e+01 4.2846100000000000e+01 0 0 0
20 20 1 0.0000000000000000e+00 5.5183300000000003e+01 5.7411099999999998e+01 4.2889600000000002e+01 0 0 0
22 22 1 0.0000000000000000e+00 5.9375200000000000e+01 5.9316600000000001e+01 4.1023099999999999e+01 0 0 0
23 23 1 0.0000000000000000e+00 5.9301499999999997e+01 5.7321599999999997e+01 4.2941800000000001e+01 0 0 0
24 24 1 0.0000000000000000e+00 5.7167600000000000e+01 5.9368800000000000e+01 4.2858600000000003e+01 0 0 0
95 95 1 0.0000000000000000e+00 5.5218699999999998e+01 5.5444099999999999e+01 4.5000300000000003e+01 0 0 0
98 98 1 0.0000000000000000e+00 5.7295000000000002e+01 5.3412999999999997e+01 4.4951999999999998e+01 0 0 0
99 99 1 0.0000000000000000e+00 5.9128799999999998e+01 5.5518400000000000e+01 4.4893799999999999e+01 0 0 0
122 122 1 0.0000000000000000e+00 5.5135599999999997e+01 5.9492800000000003e+01 4.4855499999999999e+01 0 0 0
125 125 1 0.0000000000000000e+00 5.7149900000000002e+01 5.7478400000000001e+01 4.4884599999999999e+01 0 0 0
126 126 1 0.0000000000000000e+00 5.9260399999999997e+01 5.9374000000000002e+01 4.4901100000000000e+01 0 0 0
3685 2583 4 0.0000000000000000e+00 6.5161351610982365e+01 5.3524431453278865e+01 4.1935610772998395e+01 0 0 0
3687 2583 2 0.0000000000000000e+00 6.6163046824027745e+01 5.3447571766539795e+01 4.0396770265474416e+01 0 0 0
3757 2591 4 0.0000000000000000e+00 6.1359225641088209e+01 5.5367759135425473e+01 4.0456188771547659e+01 0 0 0
3790 2594 4 0.0000000000000000e+00 6.1368481682053918e+01 5.9513982678566123e+01 4.0493896068026146e+01 0 0 0
13 13 1 0.0000000000000000e+00 6.1336599999999997e+01 5.3333100000000002e+01 4.0550899999999999e+01 0 0 0
14 14 1 0.0000000000000000e+00 6.3418199999999999e+01 5.5220199999999998e+01 4.1035200000000003e+01 0 0 0
15 15 1 0.0000000000000000e+00 6.3352800000000002e+01 5.3315600000000003e+01 4.2946199999999997e+01 0 0 0
16 16 1 0.0000000000000000e+00 6.1267200000000003e+01 5.5357799999999997e+01 4.2808799999999998e+01 0 0 0
18 18 1 0.0000000000000000e+00 6.5546800000000005e+01 5.5348700000000001e+01 4.2902900000000002e+01 0 0 0
25 25 1 0.0000000000000000e+00 6.1342700000000001e+01 5.7346699999999998e+01 4.0990299999999998e+01 0 0 0
26 26 1 0.0000000000000000e+00 6.3370199999999997e+01 5.9536200000000001e+01 4.0968699999999998e+01 0 0 0
27 27 1 0.0000000000000000e+00 6.3452599999999997e+01 5.7332099999999997e+01 4.2875500000000002e+01 0 0 0
28 28 1 0.0000000000000000e+00 6.1365499999999997e+01 5.9430100000000003e+01 4.2993099999999998e+01 0 0 0
30 30 1 0.0000000000000000e+00 6.5524299999999997e+01 5.9272199999999998e+01 4.3005000000000003e+01 0 0 0
102 102 1 0.0000000000000000e+00 6.1365499999999997e+01 5.3526299999999999e+01 4.4931100000000001e+01 0 0 0