LAMMPS 2005 Description - Generated by XenoView

        4299 atoms
        1648 bonds
        1442 angles
        1236 dihedrals

           6 atom types
           5 bond types
           5 angle types
           5 dihedral types

  -100.8100000000   150.8100000000 xlo xhi
  -100.5075000000   150.5075000000 ylo yhi
  -100.0455000000   150.0455000000 zlo zhi

Masses

  1 107.868000  Ag  
  2  12.011150  c   
  3  12.011150  c3  
  4  32.064000  sh  
  5  15.999400  oh  
  6   1.007970  ho  

Bond Coeffs

  1      1.5300    299.6700   -501.7700    679.8100
  2      1.5300    299.6700   -501.7700    679.8100
  3      1.8230    225.2768   -327.7057    488.9722
  4      1.4200    400.3954   -835.1951   1313.0142
  5      0.9650    532.5062  -1282.9050   2004.7658

Angle Coeffs

  1    112.6700     39.5160     -7.4430     -9.5583
  2    112.6700     39.5160     -7.4430     -9.5583
  3    112.5642     47.0276    -10.6790    -10.1687
  4    105.8000     52.7061    -12.1090     -9.8681
  5    111.2700     54.5381     -8.3642    -13.0838

Dihedral Coeffs

  1     0.0000     0.0000     0.0514     0.0000    -0.1430     0.0000
  2     0.0000     0.0000     0.0514     0.0000    -0.1430     0.0000
  3    -0.7017     0.0000     0.0201     0.0000     0.1040     0.0000
  4     0.0000     0.0000     0.0000     0.0000     0.1580     0.0000
  5    -0.6732     0.0000    -0.4778     0.0000    -0.1670     0.0000

BondBond Coeffs

  1      0.0000      1.5300      1.5300
  2      0.0000      1.5300      1.5300
  3     10.9186      1.5300      1.8230
  4     -9.6879      1.4200      0.9650
  5     11.4318      1.5300      1.4200

BondAngle Coeffs

  1      8.0160      8.0160      1.5300      1.5300
  2      8.0160      8.0160      1.5300      1.5300
  3     -3.5621     22.3865      1.5300      1.8230
  4     28.5800     18.9277      1.4200      0.9650
  5      2.6868     20.4033      1.5300      1.4200

AngleAngleTorsion Coeffs

  1    -22.0450    112.6700    112.6700
  2    -22.0450    112.6700    112.6700
  3    -26.7100    112.5642    112.6700
  4      0.0000    112.5642    111.2700
  5    -12.1038    105.8000    111.2700

EndBondTorsion Coeffs

  1     -0.0732      0.0000      0.0000     -0.0732      0.0000      0.0000      1.5300      1.5300
  2     -0.0732      0.0000      0.0000     -0.0732      0.0000      0.0000      1.5300      1.5300
  3     -0.7991     -0.9590      0.5855     -0.1586     -0.7244     -0.2608      1.8230      1.5300
  4      0.0000      0.0000      0.0000      0.0000      0.0000      0.0000      1.8230      1.4200
  5      0.0000      0.5343      0.9025     -0.5800      0.9004      0.0000      0.9650      1.5300

MiddleBondTorsion Coeffs

  1    -17.7870     -7.1877      0.0000      1.5300
  2    -17.7870     -7.1877      0.0000      1.5300
  3     -4.2593     -5.6468     -3.3835      1.5300
  4      0.0000      0.0000      0.0000      1.5300
  5      1.2472      0.0000      0.7485      1.4200

BondBond13 Coeffs

  1      0.0000      1.5300      1.5300
  2      0.0000      1.5300      1.5300
  3      0.0000      1.8230      1.5300
  4      0.0000      1.8230      1.4200
  5      0.0000      0.9650      1.5300

AngleTorsion Coeffs

  1      0.3886     -0.3139      0.1389      0.3886     -0.3139      0.1389    112.6700    112.6700
  2      0.3886     -0.3139      0.1389      0.3886     -0.3139      0.1389    112.6700    112.6700
  3      1.1179      0.3638      0.9423     -2.0927     -0.1498     -1.7848    112.5642    112.6700
  4      0.0000      0.0000      0.0000      0.0000      0.0000      0.0000    112.5642    111.2700
  5      0.8726     -0.3577      0.3888     -3.5903      2.5225      0.4888    105.8000    111.2700

Atoms

      1       1    1   0.000000      59.32680000      49.47800000      42.74880000
      2       2    1   0.000000      57.25420000      51.55790000      42.88900000
      3       3    1   0.000000      59.21770000      51.58340000      40.96530000
      4       4    1   0.000000      63.50960000      51.62690000      40.73120000
      5       5    1   0.000000      63.27600000      49.39680000      42.66070000
      6       6    1   0.000000      61.33600000      51.47870000      42.68030000
      7       7    1   0.000000      65.26590000      51.28980000      42.86760000
      8       8    1   0.000000      55.24600000      53.48460000      42.99840000
      9       9    1   0.000000      53.10860000      55.39420000      43.09150000
     10      10    1   0.000000      59.22450000      55.33080000      40.92090000
     11      11    1   0.000000      59.46740000      53.37710000      42.92930000
     12      12    1   0.000000      57.14960000      55.34480000      42.84610000
     13      13    1   0.000000      61.33660000      53.33310000      40.55090000
     14      14    1   0.000000      63.41820000      55.22020000      41.03520000
     15      15    1   0.000000      63.35280000      53.31560000      42.94620000
     16      16    1   0.000000      61.26720000      55.35780000      42.80880000
     17      17    1   0.000000      67.40410000      53.48770000      43.07240000
     18      18    1   0.000000      65.54680000      55.34870000      42.90290000
     19      19    1   0.000000      69.53060000      55.50250000      43.17060000
     20      20    1   0.000000      55.18330000      57.41110000      42.88960000
     21      21    1   0.000000      53.08090000      59.48540000      42.84220000
     22      22    1   0.000000      59.37520000      59.31660000      41.02310000
     23      23    1   0.000000      59.30150000      57.32160000      42.94180000
     24      24    1   0.000000      57.16760000      59.36880000      42.85860000
     25      25    1   0.000000      61.34270000      57.34670000      40.99030000
     26      26    1   0.000000      63.37020000      59.53620000      40.96870000
     27      27    1   0.000000      63.45260000      57.33210000      42.87550000
     28      28    1   0.000000      61.36550000      59.43010000      42.99310000
     29      29    1   0.000000      67.50360000      57.33640000      42.93960000
     30      30    1   0.000000      65.52430000      59.27220000      43.00500000
     31      31    1   0.000000      69.57820000      59.44590000      42.83910000
     32      32    1   0.000000      55.11870000      61.48080000      42.69740000
     33      33    1   0.000000      53.03380000      63.25970000      42.99720000
     34      34    1   0.000000      59.48100000      63.38130000      40.83380000
     35      35    1   0.000000      59.16950000      61.41240000      42.88000000
     36      36    1   0.000000      57.14550000      63.55340000      42.82270000
     37      37    1   0.000000      61.35130000      61.37700000      41.21330000
     38      38    1   0.000000      63.45880000      63.35330000      40.94370000
     39      39    1   0.000000      63.61980000      61.43210000      42.94130000
     40      40    1   0.000000      61.37610000      63.41080000      42.91710000
     41      41    1   0.000000      67.43060000      61.32340000      42.81700000
     42      42    1   0.000000      65.50630000      63.40300000      42.86060000
     43      43    1   0.000000      69.35940000      63.42680000      42.78200000
     44      44    1   0.000000      55.10300000      65.44590000      42.97830000
     45      45    1   0.000000      53.14490000      67.32660000      42.97440000
     46      46    1   0.000000      59.24690000      67.44260000      40.83260000
     47      47    1   0.000000      59.33450000      65.40710000      42.73890000
     48      48    1   0.000000      57.31440000      67.37390000      42.95290000
     49      49    1   0.000000      61.44910000      65.40330000      40.69620000
     50      50    1   0.000000      63.33010000      67.35270000      40.88550000
     51      51    1   0.000000      63.35340000      65.34770000      42.75510000
     52      52    1   0.000000      61.27970000      67.38080000      42.76310000
     53      53    1   0.000000      67.39520000      65.34190000      42.93640000
     54      54    1   0.000000      65.42670000      67.43220000      42.82870000
     55      55    1   0.000000      69.43250000      67.24840000      42.82700000
     56      56    1   0.000000      55.30850000      69.20650000      42.93330000
     57      57    1   0.000000      59.35060000      71.41170000      40.74530000
     58      58    1   0.000000      59.24860000      69.35180000      42.88190000
     59      59    1   0.000000      57.40860000      71.29710000      42.97190000
     60      60    1   0.000000      61.37060000      69.33460000      40.68030000
     61      61    1   0.000000      63.34150000      71.28280000      40.98350000
     62      62    1   0.000000      63.33370000      69.30400000      42.94940000
     63      63    1   0.000000      61.27900000      71.27040000      42.81400000
     64      64    1   0.000000      67.44890000      69.26270000      42.98140000
     65      65    1   0.000000      65.34610000      71.23080000      42.82890000
     66      66    1   0.000000      59.32140000      73.28960000      42.77670000
     67      67    1   0.000000      61.36220000      73.33990000      40.77280000
     68      68    1   0.000000      63.28590000      73.31730000      42.84680000
     69      69    1   0.000000      61.30330000      75.35020000      42.72010000
     70      70    1   0.000000      59.32420000      47.43240000      44.66890000
     71      71    1   0.000000      57.45080000      46.98660000      46.89440000
     72      72    1   0.000000      63.34640000      47.48190000      44.71440000
     73      73    1   0.000000      61.23860000      47.19210000      46.83050000
     74      74    1   0.000000      65.28590000      47.23330000      46.94220000
     75      75    1   0.000000      55.16340000      51.22150000      44.78700000
     76      76    1   0.000000      55.30480000      49.15890000      46.91510000
     77      77    1   0.000000      53.26990000      51.13360000      46.84740000
     78      78    1   0.000000      57.24010000      49.26620000      44.82060000
     79      79    1   0.000000      59.39010000      51.25590000      44.86150000
     80      80    1   0.000000      59.30170000      49.29460000      46.92840000
     81      81    1   0.000000      57.29940000      51.23780000      46.72640000
     82      82    1   0.000000      61.32450000      49.35140000      44.84590000
     83      83    1   0.000000      63.35780000      51.24840000      44.96740000
     84      84    1   0.000000      63.40870000      49.24990000      46.88610000
     85      85    1   0.000000      61.24310000      51.29160000      46.91930000
     86      86    1   0.000000      65.50200000      49.30360000      44.97090000
     87      87    1   0.000000      67.48570000      51.23360000      44.93190000
     88      88    1   0.000000      67.37220000      49.10650000      47.16390000
     89      89    1   0.000000      65.50950000      51.33770000      46.93830000
     90      90    1   0.000000      69.49980000      51.13720000      47.04060000
     91      91    1   0.000000      51.22600000      55.36410000      45.15000000
     92      92    1   0.000000      50.99540000      53.00740000      46.95050000
     93      93    1   0.000000      49.21670000      55.31060000      47.15860000
     94      94    1   0.000000      53.17900000      53.29240000      44.88080000
     95      95    1   0.000000      55.21870000      55.44410000      45.00030000
     96      96    1   0.000000      55.16360000      53.30840000      46.98520000
     97      97    1   0.000000      53.24090000      55.33990000      47.05800000
     98      98    1   0.000000      57.29500000      53.41300000      44.95200000
     99      99    1   0.000000      59.12880000      55.51840000      44.89380000
    100     100    1   0.000000      59.35070000      53.36990000      46.84770000
    101     101    1   0.000000      57.25620000      55.37010000      46.96820000
    102     102    1   0.000000      61.36550000      53.52630000      44.93110000
    103     103    1   0.000000      63.40100000      55.48410000      44.95010000
    104     104    1   0.000000      63.30200000      53.32720000      46.88990000
    105     105    1   0.000000      61.35560000      55.43420000      46.97840000
    106     106    1   0.000000      65.29190000      53.38530000      44.89430000
    107     107    1   0.000000      67.54180000      55.35250000      45.07060000
    108     108    1   0.000000      67.42050000      53.27000000      46.99600000
    109     109    1   0.000000      65.39180000      55.26070000      46.96120000
    110     110    1   0.000000      69.53980000      53.31630000      45.12020000
    111     111    1   0.000000      71.50860000      55.53760000      45.14200000
    112     112    1   0.000000      71.55210000      53.24150000      47.07490000
    113     113    1   0.000000      69.44880000      55.36210000      47.12640000
    114     114    1   0.000000      73.57620000      55.29090000      47.07340000
    115     115    1   0.000000      46.94910000      57.14940000      47.20510000
    116     116    1   0.000000      44.89680000      59.33760000      47.46490000
    117     117    1   0.000000      49.08310000      57.41030000      45.26110000
    118     118    1   0.000000      51.06620000      59.29360000      44.90820000
    119     119    1   0.000000      51.14910000      57.33670000      47.06870000
    120     120    1   0.000000      49.04910000      59.21880000      47.15060000
    121     121    1   0.000000      53.20160000      57.47820000      45.02110000
    122     122    1   0.000000      55.13560000      59.49280000      44.85550000
    123     123    1   0.000000      55.24600000      57.50620000      47.05360000
    124     124    1   0.000000      53.08560000      59.40830000      47.06770000
    125     125    1   0.000000      57.14990000      57.47840000      44.88460000
    126     126    1   0.000000      59.26040000      59.37400000      44.90110000
    127     127    1   0.000000      59.41880000      57.28520000      46.97030000
    128     128    1   0.000000      57.28960000      59.34760000      46.93230000
    129     129    1   0.000000      61.37970000      57.35700000      44.82310000
    130     130    1   0.000000      63.41690000      59.36130000      45.02280000
    131     131    1   0.000000      63.33540000      57.32850000      47.12310000
    132     132    1   0.000000      61.37460000      59.49420000      46.98910000
    133     133    1   0.000000      65.39830000      57.34850000      45.10340000
    134     134    1   0.000000      67.59910000      59.38600000      44.99480000
    135     135    1   0.000000      67.44540000      57.29240000      47.06320000
    136     136    1   0.000000      65.43490000      59.40550000      47.11400000
    137     137    1   0.000000      69.56400000      57.61240000      45.03330000
    138     138    1   0.000000      71.74220000      59.49620000      44.94280000
    139     139    1   0.000000      71.50620000      57.42230000      47.05430000
    140     140    1   0.000000      69.51670000      59.66780000      47.04180000
    141     141    1   0.000000      73.57480000      57.49770000      45.24780000
    142     142    1   0.000000      75.76920000      57.34600000      47.22100000
    143     143    1   0.000000      73.62160000      59.45850000      47.28560000
    144     144    1   0.000000      77.79700000      59.37930000      47.33510000
    145     145    1   0.000000      42.83200000      61.35010000      47.39990000
    146     146    1   0.000000      46.99370000      61.24150000      47.33280000
    147     147    1   0.000000      44.85740000      63.47540000      47.40870000
    148     148    1   0.000000      48.96810000      61.25110000      45.11330000
    149     149    1   0.000000      51.04560000      63.26030000      44.99340000
    150     150    1   0.000000      50.85140000      61.33220000      47.20470000
    151     151    1   0.000000      48.99130000      63.38100000      47.25820000
    152     152    1   0.000000      53.02110000      61.27280000      44.93850000
    153     153    1   0.000000      55.09390000      63.21640000      44.88030000
    154     154    1   0.000000      55.07790000      61.35960000      46.96890000
    155     155    1   0.000000      53.07310000      63.26110000      46.95900000
    156     156    1   0.000000      57.20230000      61.32410000      44.86360000
    157     157    1   0.000000      59.15840000      63.40140000      44.86700000
    158     158    1   0.000000      59.19750000      61.28920000      46.97180000
    159     159    1   0.000000      57.24600000      63.19460000      47.04870000
    160     160    1   0.000000      61.28250000      61.53020000      44.96120000
    161     161    1   0.000000      63.42010000      63.28120000      44.93140000
    162     162    1   0.000000      63.59350000      61.36030000      47.12700000
    163     163    1   0.000000      61.30940000      63.42000000      46.94390000
    164     164    1   0.000000      65.57500000      61.35690000      44.87930000
    165     165    1   0.000000      67.56760000      63.36240000      44.91580000
    166     166    1   0.000000      67.54270000      61.61270000      47.01440000
    167     167    1   0.000000      65.53360000      63.43770000      46.83690000
    168     168    1   0.000000      69.69310000      61.35420000      44.83140000
    169     169    1   0.000000      71.50720000      63.47910000      44.88990000
    170     170    1   0.000000      71.66900000      61.54200000      46.95080000
    171     171    1   0.000000      69.52900000      63.44870000      47.06860000
    172     172    1   0.000000      73.79260000      61.29670000      45.13150000
    173     173    1   0.000000      75.78670000      61.29350000      47.19940000
    174     174    1   0.000000      73.84030000      63.34860000      47.12860000
    175     175    1   0.000000      79.81760000      61.51720000      47.42680000
    176     176    1   0.000000      77.84090000      63.51120000      47.31100000
    177     177    1   0.000000      47.02910000      65.48330000      47.15250000
    178     178    1   0.000000      49.08450000      65.32110000      45.21510000
    179     179    1   0.000000      51.17660000      67.30730000      45.09290000
    180     180    1   0.000000      51.08020000      65.43930000      47.13560000
    181     181    1   0.000000      49.17770000      67.43680000      47.10430000
    182     182    1   0.000000      53.01820000      65.37320000      45.02520000
    183     183    1   0.000000      55.17470000      67.51960000      45.05900000
    184     184    1   0.000000      55.27630000      65.33240000      46.91700000
    185     185    1   0.000000      53.16460000      67.29130000      47.09400000
    186     186    1   0.000000      57.15300000      65.40760000      44.92260000
    187     187    1   0.000000      59.24170000      67.27540000      44.91840000
    188     188    1   0.000000      59.29770000      65.36310000      46.98570000
    189     189    1   0.000000      57.32750000      67.35820000      47.08050000
    190     190    1   0.000000      61.29120000      65.46070000      44.90670000
    191     191    1   0.000000      63.34070000      67.33360000      44.88180000
    192     192    1   0.000000      63.44030000      65.37040000      47.00440000
    193     193    1   0.000000      61.30250000      67.26890000      47.01480000
    194     194    1   0.000000      65.29040000      65.47360000      44.82480000
    195     195    1   0.000000      67.40920000      67.41980000      45.03530000
    196     196    1   0.000000      67.52130000      65.39720000      46.99890000
    197     197    1   0.000000      65.31360000      67.41580000      46.97740000
    198     198    1   0.000000      69.48300000      65.42260000      44.88820000
    199     199    1   0.000000      71.46690000      67.19890000      44.94370000
    200     200    1   0.000000      71.64140000      65.36330000      47.03990000
    201     201    1   0.000000      69.50680000      67.25230000      47.04930000
    202     202    1   0.000000      73.65030000      65.38500000      45.08620000
    203     203    1   0.000000      75.75080000      65.56670000      47.14140000
    204     204    1   0.000000      73.56240000      67.40880000      47.00720000
    205     205    1   0.000000      51.24870000      69.47880000      46.99640000
    206     206    1   0.000000      53.27740000      69.35790000      44.96720000
    207     207    1   0.000000      55.30090000      71.33940000      44.95440000
    208     208    1   0.000000      55.24760000      69.38890000      47.11140000
    209     209    1   0.000000      53.24250000      71.48120000      46.97410000
    210     210    1   0.000000      57.39950000      69.33230000      44.99740000
    211     211    1   0.000000      59.44000000      71.42520000      44.91360000
    212     212    1   0.000000      59.28400000      69.26180000      47.00920000
    213     213    1   0.000000      57.38360000      71.43540000      46.96040000
    214     214    1   0.000000      61.22570000      69.25890000      44.94770000
    215     215    1   0.000000      63.25520000      71.28520000      44.98790000
    216     216    1   0.000000      63.44360000      69.52740000      46.99340000
    217     217    1   0.000000      61.28750000      71.47930000      46.93790000
    218     218    1   0.000000      65.27630000      69.45540000      44.96940000
    219     219    1   0.000000      67.45500000      71.34270000      44.95080000
    220     220    1   0.000000      67.48850000      69.37080000      47.01350000
    221     221    1   0.000000      65.43120000      71.49230000      46.94050000
    222     222    1   0.000000      69.45740000      69.32110000      44.90460000
    223     223    1   0.000000      71.50580000      69.49990000      46.76840000
    224     224    1   0.000000      69.51400000      71.42700000      46.92460000
    225     225    1   0.000000      55.29420000      73.56360000      46.83200000
    226     226    1   0.000000      57.33730000      73.35840000      44.88200000
    227     227    1   0.000000      59.30370000      75.45440000      44.87310000
    228     228    1   0.000000      59.33090000      73.57770000      46.95410000
    229     229    1   0.000000      57.33380000      75.56040000      46.87740000
    230     230    1   0.000000      61.33480000      73.45810000      44.89340000
    231     231    1   0.000000      63.35500000      75.35660000      44.89730000
    232     232    1   0.000000      63.41670000      73.43450000      46.97800000
    233     233    1   0.000000      61.35080000      75.46340000      46.94950000
    234     234    1   0.000000      65.36090000      73.37630000      44.81270000
    235     235    1   0.000000      67.32200000      73.28930000      46.94180000
    236     236    1   0.000000      65.31250000      75.50780000      46.90500000
    237     237    1   0.000000      55.40060000      47.09430000      48.92340000
    238     238    1   0.000000      55.48720000      45.11590000      51.05780000
    239     239    1   0.000000      53.20000000      46.99310000      51.03480000
    240     240    1   0.000000      57.53330000      45.25020000      48.93360000
    241     241    1   0.000000      59.34990000      47.21310000      48.89070000
    242     242    1   0.000000      59.29370000      44.84360000      51.03360000
    243     243    1   0.000000      57.47940000      47.18750000      51.02050000
    244     244    1   0.000000      61.21000000      45.04900000      48.96110000
    245     245    1   0.000000      63.18560000      47.07410000      48.95360000
    246     246    1   0.000000      63.30630000      44.83410000      51.01490000
    247     247    1   0.000000      61.30630000      46.96300000      50.87220000
    248     248    1   0.000000      65.15800000      45.15360000      48.98400000
    249     249    1   0.000000      67.31310000      46.96440000      48.97090000
    250     250    1   0.000000      67.23180000      45.07320000      51.09880000
    251     251    1   0.000000      65.27230000      46.94500000      50.97570000
    252     252    1   0.000000      69.46730000      46.97300000      51.20280000
    253     253    1   0.000000      51.11750000      50.95630000      48.84570000
    254     254    1   0.000000      51.11860000      49.02380000      50.93540000
    255     255    1   0.000000      49.07400000      50.94070000      50.99320000
    256     256    1   0.000000      53.32470000      49.07190000      49.08040000
    257     257    1   0.000000      55.28340000      51.15770000      48.81820000
    258     258    1   0.000000      55.32780000      48.96500000      51.03470000
    259     259    1   0.000000      53.21460000      51.10810000      50.97200000
    260     260    1   0.000000      57.28440000      49.06610000      48.80340000
    261     261    1   0.000000      59.35730000      51.18850000      48.95940000
    262     262    1   0.000000      59.43410000      49.19850000      51.09270000
    263     263    1   0.000000      57.30950000      51.00320000      50.77700000
    264     264    1   0.000000      61.38140000      49.25820000      48.93820000
    265     265    1   0.000000      63.40710000      51.10160000      49.07160000
    266     266    1   0.000000      63.42670000      49.06120000      51.16330000
    267     267    1   0.000000      61.35050000      51.02110000      51.02720000
    268     268    1   0.000000      65.33760000      49.04720000      49.02840000
    269     269    1   0.000000      67.51440000      51.23640000      49.08990000
    270     270    1   0.000000      67.44250000      48.90200000      51.01360000
    271     271    1   0.000000      65.41970000      51.01630000      50.97740000
    272     272    1   0.000000      69.57630000      48.71310000      49.03100000
    273     273    1   0.000000      71.43860000      51.12420000      49.07150000
    274     274    1   0.000000      71.58810000      49.00500000      51.07820000
    275     275    1   0.000000      69.54610000      50.98640000      51.02720000
    276     276    1   0.000000      73.67620000      51.08380000      51.14190000
    277     277    1   0.000000      47.02700000      55.28240000      49.25460000
    278     278    1   0.000000      47.20450000      53.10410000      51.00880000
    279     279    1   0.000000      45.13650000      55.30740000      51.23250000
    280     280    1   0.000000      49.06030000      52.96430000      48.99760000
    281     281    1   0.000000      51.25110000      55.16250000      49.01570000
    282     282    1   0.000000      51.03840000      53.04420000      51.05580000
    283     283    1   0.000000      49.15570000      55.25400000      51.08020000
    284     284    1   0.000000      53.12060000      53.04720000      49.05280000
    285     285    1   0.000000      55.30390000      55.21570000      49.13170000
    286     286    1   0.000000      55.27830000      53.11680000      51.06160000
    287     287    1   0.000000      53.23260000      55.06840000      51.03430000
    288     288    1   0.000000      57.38050000      53.19550000      48.90310000
    289     289    1   0.000000      59.34270000      55.24710000      49.04320000
    290     290    1   0.000000      59.23640000      53.29730000      51.00350000
    291     291    1   0.000000      57.31350000      55.31680000      51.04380000
    292     292    1   0.000000      61.33950000      53.29760000      48.93980000
    293     293    1   0.000000      63.31110000      55.27160000      49.10660000
    294     294    1   0.000000      63.32840000      53.26010000      51.16390000
    295     295    1   0.000000      61.33230000      55.41120000      51.18010000
    296     296    1   0.000000      65.28080000      53.15050000      49.02390000
    297     297    1   0.000000      67.50950000      55.15630000      49.09250000
    298     298    1   0.000000      67.50280000      53.10820000      51.09230000
    299     299    1   0.000000      65.52640000      55.18770000      51.09570000
    300     300    1   0.000000      69.60920000      53.21850000      49.10140000
    301     301    1   0.000000      71.68690000      55.20450000      49.02370000
    302     302    1   0.000000      71.65810000      53.25570000      51.15430000
    303     303    1   0.000000      69.52740000      55.18790000      51.16660000
    304     304    1   0.000000      73.57190000      53.10540000      48.95270000
    305     305    1   0.000000      75.59420000      55.35270000      49.18340000
    306     306    1   0.000000      75.70690000      53.19850000      51.15540000
    307     307    1   0.000000      73.60100000      55.20160000      51.11380000
    308     308    1   0.000000      77.77770000      55.07720000      51.31260000
    309     309    1   0.000000      42.88950000      59.42510000      49.18150000
    310     310    1   0.000000      43.08870000      57.21930000      51.23900000
    311     311    1   0.000000      40.96530000      59.16880000      51.36290000
    312     312    1   0.000000      45.04490000      57.29080000      49.20820000
    313     313    1   0.000000      47.13390000      59.29420000      49.28660000
    314     314    1   0.000000      47.04050000      57.22630000      51.20060000
    315     315    1   0.000000      45.02480000      59.22480000      51.21620000
    316     316    1   0.000000      49.13700000      57.22800000      49.04010000