3060
Atoms. Timestep: 122
1 -4.085 -10.2125 -18.3825
1 -2.0425 -12.255 -18.3825
1 0 -12.255 -20.425
1 0 -10.2125 -18.3825
1 2.0425 -12.255 -18.3825
1 4.085 -10.2125 -18.3825
1 -6.1275 -8.17 -18.3825
1 -4.085 -6.1275 -18.3825
1 -2.0425 -8.17 -18.3825
1 0 -8.17 -20.425
1 0 -6.1275 -18.3825
1 2.0425 -8.17 -18.3825
1 4.085 -6.1275 -18.3825
1 6.1275 -8.17 -18.3825
1 -6.1275 -4.085 -18.3825
1 -4.085 -2.0425 -18.3825
1 -2.0425 -4.085 -18.3825
1 0 -4.085 -20.425
1 0 -2.0425 -18.3825
1 2.0425 -4.085 -18.3825
1 4.085 -2.0425 -18.3825
1 6.1275 -4.085 -18.3825
1 -6.1275 0 -18.3825
1 -4.085 2.0425 -18.3825
1 -2.0425 0 -18.3825
1 0 0 -20.425
1 0 2.0425 -18.3825
1 2.0425 0 -18.3825
1 4.085 2.0425 -18.3825
1 6.1275 0 -18.3825
1 -6.1275 4.085 -18.3825
1 -4.085 6.1275 -18.3825
1 -2.0425 4.085 -18.3825
1 0 4.085 -20.425
1 0 6.1275 -18.3825
1 2.0425 4.085 -18.3825
1 4.085 6.1275 -18.3825
1 6.1275 4.085 -18.3825
1 -6.1275 8.17 -18.3825
1 -4.085 10.2125 -18.3825
1 -2.0425 8.17 -18.3825
1 0 8.17 -20.425
1 0 10.2125 -18.3825
1 2.0425 8.17 -18.3825
1 4.085 10.2125 -18.3825
1 6.1275 8.17 -18.3825
1 -2.0425 12.255 -18.3825
1 0 12.255 -20.425
1 2.0425 12.255 -18.3825
1 -4.085 -14.2975 -14.2975
1 -2.0425 -14.2975 -16.34
1 0 -14.2975 -14.2975
1 2.0425 -14.2975 -16.34
1 4.085 -14.2975 -14.2975
1 -8.17 -10.2125 -14.2975
1 -6.1275 -12.255 -14.2975
1 -6.1275 -10.2125 -16.34
1 -4.085 -12.255 -16.34
1 -4.085 -10.2125 -14.2975
1 -2.0425 -12.255 -14.2975
1 -2.0425 -10.2125 -16.34
1 0 -12.255 -16.34
1 2.0425 -12.255 -14.2975
1 2.0425 -10.2125 -16.34
1 4.085 -12.255 -16.34
1 4.085 -10.2125 -14.2975
1 6.1275 -12.255 -14.2975
1 6.1275 -10.2125 -16.34
1 8.17 -10.2125 -14.2975
1 -12.255 -6.1275 -14.2975
1 -10.2125 -8.17 -14.2975
1 -10.2125 -6.1275 -16.34
1 -8.17 -8.17 -16.34
1 -8.17 -6.1275 -14.2975
1 -6.1275 -8.17 -14.2975
1 -6.1275 -6.1275 -16.34
1 -4.085 -8.17 -16.34
1 -2.0425 -6.1275 -16.34
1 0 -8.17 -16.34
1 2.0425 -6.1275 -16.34
1 4.085 -8.17 -16.34
1 6.1275 -8.17 -14.2975
1 6.1275 -6.1275 -16.34
1 8.17 -8.17 -16.34
1 8.17 -6.1275 -14.2975
1 10.2125 -8.17 -14.2975
1 10.2125 -6.1275 -16.34
1 12.255 -6.1275 -14.2975
1 -16.34 -2.0425 -14.2975
1 -14.2975 -4.085 -14.2975
1 -12.255 -4.085 -16.34
1 -12.255 -2.0425 -14.2975
1 -10.2125 -4.085 -14.2975
1 -10.2125 -2.0425 -16.34
1 -8.17 -4.085 -16.34
1 -8.17 -2.0425 -14.2975
1 -6.1275 -4.085 -14.2975
1 -6.1275 -2.0425 -16.34
1 -4.085 -4.085 -16.34
1 -2.0425 -2.0425 -16.34
1 0 -4.085 -16.34
1 2.0425 -2.0425 -16.34
1 4.085 -4.085 -16.34
1 6.1275 -4.085 -14.2975
1 6.1275 -2.0425 -16.34
1 8.17 -4.085 -16.34
1 8.17 -2.0425 -14.2975
1 10.2125 -4.085 -14.2975
1 10.2125 -2.0425 -16.34
1 12.255 -4.085 -16.34
1 12.255 -2.0425 -14.2975
1 14.2975 -4.085 -14.2975
1 16.34 -2.0425 -14.2975
1 -16.34 2.0425 -14.2975
1 -14.2975 0 -14.2975
1 -12.255 0 -16.34
1 -12.255 2.0425 -14.2975
1 -10.2125 0 -14.2975
1 -10.2125 2.0425 -16.34
1 -8.17 0 -16.34
1 -8.17 2.0425 -14.2975
1 -6.1275 0 -14.2975
1 -6.1275 2.0425 -16.34
1 -4.085 0 -16.34
1 -2.0425 2.0425 -16.34
1 0 0 -16.34
1 2.0425 2.0425 -16.34
1 4.085 0 -16.34
1 6.1275 0 -14.2975
1 6.1275 2.0425 -16.34
1 8.17 0 -16.34
1 8.17 2.0425 -14.2975
1 10.2125 0 -14.2975
1 10.2125 2.0425 -16.34
1 12.255 0 -16.34
1 12.255 2.0425 -14.2975
1 14.2975 0 -14.2975
1 16.34 2.0425 -14.2975
1 -14.2975 4.085 -14.2975
1 -12.255 4.085 -16.34
1 -12.255 6.1275 -14.2975
1 -10.2125 4.085 -14.2975
1 -10.2125 6.1275 -16.34
1 -8.17 4.085 -16.34
1 -8.17 6.1275 -14.2975
1 -6.1275 4.085 -14.2975
1 -6.1275 6.1275 -16.34
1 -4.085 4.085 -16.34
1 -2.0425 6.1275 -16.34
1 0 4.085 -16.34
1 2.0425 6.1275 -16.34
1 4.085 4.085 -16.34
1 6.1275 4.085 -14.2975
1 6.1275 6.1275 -16.34
1 8.17 4.085 -16.34
1 8.17 6.1275 -14.2975
1 10.2125 4.085 -14.2975
1 10.2125 6.1275 -16.34
1 12.255 4.085 -16.34
1 12.255 6.1275 -14.2975
1 14.2975 4.085 -14.2975
1 -10.2125 8.17 -14.2975
1 -8.17 8.17 -16.34
1 -8.17 10.2125 -14.2975
1 -6.1275 8.17 -14.2975
1 -6.1275 10.2125 -16.34
1 -4.085 8.17 -16.34
1 -4.085 10.2125 -14.2975
1 -2.0425 10.2125 -16.34
1 0 8.17 -16.34
1 2.0425 10.2125 -16.34
1 4.085 8.17 -16.34
1 4.085 10.2125 -14.2975
1 6.1275 8.17 -14.2975
1 6.1275 10.2125 -16.34
1 8.17 8.17 -16.34
1 8.17 10.2125 -14.2975
1 10.2125 8.17 -14.2975
1 -6.1275 12.255 -14.2975
1 -4.085 12.255 -16.34
1 -4.085 14.2975 -14.2975
1 -2.0425 12.255 -14.2975
1 -2.0425 14.2975 -16.34
1 0 12.255 -16.34
1 0 14.2975 -14.2975
1 2.0425 12.255 -14.2975
1 2.0425 14.2975 -16.34
1 4.085 12.255 -16.34
1 4.085 14.2975 -14.2975
1 6.1275 12.255 -14.2975
1 -8.17 -14.2975 -10.2125
1 -6.1275 -16.34 -10.2125
1 -6.1275 -14.2975 -12.255
1 -4.085 -16.34 -12.255
1 -4.085 -14.2975 -10.2125
1 -2.0425 -16.34 -10.2125
1 -2.0425 -14.2975 -12.255
1 0 -16.34 -12.255
1 0 -14.2975 -10.2125
1 2.0425 -16.34 -10.2125
1 2.0425 -14.2975 -12.255
1 4.085 -16.34 -12.255
1 4.085 -14.2975 -10.2125
1 6.1275 -16.34 -10.2125
1 6.1275 -14.2975 -12.255
1 8.17 -14.2975 -10.2125
1 -12.255 -10.2125 -10.2125
1 -10.2125 -12.255 -10.2125
1 -10.2125 -10.2125 -12.255
1 -8.17 -12.255 -12.255
1 -8.17 -10.2125 -10.2125
1 -6.1275 -12.255 -10.2125
1 -6.1275 -10.2125 -12.255
1 -4.085 -12.255 -12.255
1 0 -12.255 -12.255
1 4.085 -12.255 -12.255
1 6.1275 -12.255 -10.2125
1 6.1275 -10.2125 -12.255
1 8.17 -12.255 -12.255
1 8.17 -10.2125 -10.2125
1 10.2125 -12.255 -10.2125
1 10.2125 -10.2125 -12.255
1 12.255 -10.2125 -10.2125
1 -16.34 -6.1275 -10.2125
1 -14.2975 -8.17 -10.2125
1 -14.2975 -6.1275 -12.255
1 -12.255 -8.17 -12.255
1 -12.255 -6.1275 -10.2125
1 -10.2125 -8.17 -10.2125
1 -10.2125 -6.1275 -12.255
1 -8.17 -8.17 -12.255
1 8.17 -8.17 -12.255
1 10.2125 -8.17 -10.2125
1 10.2125 -6.1275 -12.255
1 12.255 -8.17 -12.255
1 12.255 -6.1275 -10.2125
1 14.2975 -8.17 -10.2125
1 14.2975 -6.1275 -12.255
1 16.34 -6.1275 -10.2125
1 -18.3825 -4.085 -10.2125
1 -18.3825 -2.0425 -12.255
1 -16.34 -4.085 -12.255
1 -16.34 -2.0425 -10.2125
1 -14.2975 -4.085 -10.2125
1 -14.2975 -2.0425 -12.255
1 -12.255 -4.085 -12.255
1 12.255 -4.085 -12.255
1 14.2975 -4.085 -10.2125
1 14.2975 -2.0425 -12.255
1 16.34 -4.085 -12.255
1 16.34 -2.0425 -10.2125
1 18.3825 -4.085 -10.2125
1 18.3825 -2.0425 -12.255
1 -20.425 0 -12.255
1 -18.3825 0 -10.2125
1 -18.3825 2.0425 -12.255
1 -16.34 0 -12.255
1 -16.34 2.0425 -10.2125
1 -14.2975 2.0425 -12.255
1 -12.255 0 -12.255
1 12.255 0 -12.255
1 14.2975 2.0425 -12.255
1 16.34 0 -12.255
1 16.34 2.0425 -10.2125
1 18.3825 0 -10.2125
1 18.3825 2.0425 -12.255
1 20.425 0 -12.255
1 -18.3825 4.085 -10.2125
1 -16.34 4.085 -12.255
1 -16.34 6.1275 -10.2125
1 -14.2975 4.085 -10.2125
1 -14.2975 6.1275 -12.255
1 -12.255 4.085 -12.255
1 -12.255 6.1275 -10.2125
1 -10.2125 6.1275 -12.255
1 10.2125 6.1275 -12.255
1 12.255 4.085 -12.255
1 12.255 6.1275 -10.2125
1 14.2975 4.085 -10.2125
1 14.2975 6.1275 -12.255
1 16.34 4.085 -12.255
1 16.34 6.1275 -10.2125
1 18.3825 4.085 -10.2125
1 -14.2975 8.17 -10.2125
1 -12.255 8.17 -12.255
1 -12.255 10.2125 -10.2125
1 -10.2125 8.17 -10.2125
1 -10.2125 10.2125 -12.255
1 -8.17 8.17 -12.255
1 -8.17 10.2125 -10.2125
1 -6.1275 10.2125 -12.255
1 6.1275 10.2125 -12.255
1 8.17 8.17 -12.255
1 8.17 10.2125 -10.2125
1 10.2125 8.17 -10.2125
1 10.2125 10.2125 -12.255
1 12.255 8.17 -12.255
1 12.255 10.2125 -10.2125
1 14.2975 8.17 -10.2125
1 -10.2125 12.255 -10.2125
1 -8.17 12.255 -12.255
1 -8.17 14.2975 -10.2125
1 -6.1275 12.255 -10.2125
1 -6.1275 14.2975 -12.255
1 -4.085 12.255 -12.255
1 -4.085 14.2975 -10.2125
1 -2.0425 14.2975 -12.255
1 0 12.255 -12.255
1 0 14.2975 -10.2125
1 2.0425 14.2975 -12.255
1 4.085 12.255 -12.255
1 4.085 14.2975 -10.2125
1 6.1275 12.255 -10.2125
1 6.1275 14.2975 -12.255
1 8.17 12.255 -12.255
1 8.17 14.2975 -10.2125
1 10.2125 12.255 -10.2125
1 -6.1275 16.34 -10.2125
1 -4.085 16.34 -12.255
1 -2.0425 16.34 -10.2125
1 0 16.34 -12.255
1 2.0425 16.34 -10.2125
1 4.085 16.34 -12.255
1 6.1275 16.34 -10.2125
1 -8.17 -18.3825 -6.1275
1 -4.085 -18.3825 -6.1275
1 0 -18.3825 -6.1275
1 4.085 -18.3825 -6.1275
1 8.17 -18.3825 -6.1275
1 -12.255 -14.2975 -6.1275
1 -10.2125 -16.34 -6.1275
1 -10.2125 -14.2975 -8.17
1 -8.17 -16.34 -8.17
1 -8.17 -14.2975 -6.1275
1 -6.1275 -16.34 -6.1275
1 -6.1275 -14.2975 -8.17
1 -4.085 -16.34 -8.17
1 -4.085 -14.2975 -6.1275
1 -2.0425 -16.34 -6.1275
1 -2.0425 -14.2975 -8.17
1 0 -16.34 -8.17
1 0 -14.2975 -6.1275
1 2.0425 -16.34 -6.1275
1 2.0425 -14.2975 -8.17
1 4.085 -16.34 -8.17
1 4.085 -14.2975 -6.1275
1 6.1275 -16.34 -6.1275
1 6.1275 -14.2975 -8.17
1 8.17 -16.34 -8.17
1 8.17 -14.2975 -6.1275
1 10.2125 -16.34 -6.1275
1 10.2125 -14.2975 -8.17
1 12.255 -14.2975 -6.1275
1 -16.34 -10.2125 -6.1275
1 -14.2975 -12.255 -6.1275
1 -14.2975 -10.2125 -8.17
1 -12.255 -12.255 -8.17
1 -12.255 -10.2125 -6.1275
1 -10.2125 -12.255 -6.1275
1 -10.2125 -10.2125 -8.17
1 -8.17 -12.255 -8.17
1 8.17 -12.255 -8.17
1 10.2125 -12.255 -6.1275
1 10.2125 -10.2125 -8.17
1 12.255 -12.255 -8.17
1 12.255 -10.2125 -6.1275
1 14.2975 -12.255 -6.1275
1 14.2975 -10.2125 -8.17
1 16.34 -10.2125 -6.1275
1 -18.3825 -6.1275 -8.17
1 -16.34 -8.17 -8.17
1 -16.34 -6.1275 -6.1275
1 -14.2975 -8.17 -6.1275
1 -14.2975 -6.1275 -8.17
1 -12.255 -8.17 -8.17
1 12.255 -8.17 -8.17
1 14.2975 -8.17 -6.1275
1 14.2975 -6.1275 -8.17
1 16.34 -8.17 -8.17
1 16.34 -6.1275 -6.1275
1 18.3825 -6.1275 -8.17
1 -18.3825 -4.085 -6.1275
1 -18.3825 -2.0425 -8.17
1 -16.34 -4.085 -8.17
1 -16.34 -2.0425 -6.1275
1 16.34 -4.085 -8.17
1 16.34 -2.0425 -6.1275
1 18.3825 -4.085 -6.1275
1 18.3825 -2.0425 -8.17
1 -20.425 0 -8.17
1 -18.3825 0 -6.1275
1 -18.3825 2.0425 -8.17
1 -16.34 0 -8.17
1 -16.34 2.0425 -6.1275
1 16.34 0 -8.17
1 16.34 2.0425 -6.1275
1 18.3825 0 -6.1275
1 18.3825 2.0425 -8.17
1 20.425 0 -8.17
1 -18.3825 4.085 -6.1275
1 -18.3825 6.1275 -8.17
1 -16.34 4.085 -8.17
1 -16.34 6.1275 -6.1275
1 -14.2975 6.1275 -8.17
1 14.2975 6.1275 -8.17
1 16.34 4.085 -8.17
1 16.34 6.1275 -6.1275
1 18.3825 4.085 -6.1275
1 18.3825 6.1275 -8.17
1 -16.34 8.17 -8.17
1 -16.34 10.2125 -6.1275
1 -14.2975 8.17 -6.1275
1 -14.2975 10.2125 -8.17
1 -12.255 8.17 -8.17
1 -12.255 10.2125 -6.1275
1 -10.2125 10.2125 -8.17
1 10.2125 10.2125 -8.17
1 12.255 8.17 -8.17
1 12.255 10.2125 -6.1275
1 14.2975 8.17 -6.1275
1 14.2975 10.2125 -8.17
1 16.34 8.17 -8.17
1 16.34 10.2125 -6.1275
1 -14.2975 12.255 -6.1275
1 -12.255 12.255 -8.17
1 -12.255 14.2975 -6.1275
1 -10.2125 12.255 -6.1275
1 -10.2125 14.2975 -8.17
1 -8.17 12.255 -8.17
1 -8.17 14.2975 -6.1275
1 -6.1275 14.2975 -8.17
1 -4.085 14.2975 -6.1275
1 -2.0425 14.2975 -8.17
1 0 14.2975 -6.1275
1 2.0425 14.2975 -8.17
1 4.085 14.2975 -6.1275
1 6.1275 14.2975 -8.17
1 8.17 12.255 -8.17
1 8.17 14.2975 -6.1275
1 10.2125 12.255 -6.1275
1 10.2125 14.2975 -8.17
1 12.255 12.255 -8.17
1 12.255 14.2975 -6.1275
1 14.2975 12.255 -6.1275
1 -10.2125 16.34 -6.1275
1 -8.17 16.34 -8.17
1 -8.17 18.3825 -6.1275
1 -6.1275 16.34 -6.1275
1 -4.085 16.34 -8.17
1 -4.085 18.3825 -6.1275
1 -2.0425 16.34 -6.1275
1 0 16.34 -8.17
1 0 18.3825 -6.1275
1 2.0425 16.34 -6.1275
1 4.085 16.34 -8.17
1 4.085 18.3825 -6.1275
1 6.1275 16.34 -6.1275
1 8.17 16.34 -8.17
1 8.17 18.3825 -6.1275
1 10.2125 16.34 -6.1275
1 -12.255 -18.3825 -2.0425
1 -10.2125 -18.3825 -4.085
1 -8.17 -18.3825 -2.0425
1 -6.1275 -18.3825 -4.085
1 -4.085 -18.3825 -2.0425
1 -2.0425 -18.3825 -4.085
1 0 -18.3825 -2.0425
1 2.0425 -18.3825 -4.085
1 4.085 -18.3825 -2.0425
1 6.1275 -18.3825 -4.085
1 8.17 -18.3825 -2.0425
1 10.2125 -18.3825 -4.085
1 12.255 -18.3825 -2.0425
1 -14.2975 -16.34 -2.0425
1 -14.2975 -14.2975 -4.085
1 -12.255 -16.34 -4.085
1 -12.255 -14.2975 -2.0425
1 -10.2125 -16.34 -2.0425
1 -10.2125 -14.2975 -4.085
1 -8.17 -16.34 -4.085
1 -6.1275 -16.34 -2.0425
1 -4.085 -16.34 -4.085
1 -2.0425 -16.34 -2.0425
1 0 -16.34 -4.085
1 2.0425 -16.34 -2.0425
1 4.085 -16.34 -4.085
1 6.1275 -16.34 -2.0425
1 8.17 -16.34 -4.085
1 10.2125 -16.34 -2.0425
1 10.2125 -14.2975 -4.085
1 12.255 -16.34 -4.085
1 12.255 -14.2975 -2.0425
1 14.2975 -16.34 -2.0425
1 14.2975 -14.2975 -4.085
1 -16.34 -12.255 -4.085
1 -16.34 -10.2125 -2.0425
1 -14.2975 -12.255 -2.0425
1 -14.2975 -10.2125 -4.085
1 -12.255 -12.255 -4.085
1 12.255 -12.255 -4.085
1 14.2975 -12.255 -2.0425
1 14.2975 -10.2125 -4.085
1 16.34 -12.255 -4.085
1 16.34 -10.2125 -2.0425
1 -18.3825 -6.1275 -4.085
1 -16.34 -8.17 -4.085
1 -16.34 -6.1275 -2.0425
1 -14.2975 -8.17 -2.0425
1 -14.2975 -6.1275 -4.085
1 14.2975 -8.17 -2.0425
1 14.2975 -6.1275 -4.085
1 16.34 -8.17 -4.085
1 16.34 -6.1275 -2.0425
1 18.3825 -6.1275 -4.085
1 -18.3825 -4.085 -2.0425
1 -18.3825 -2.0425 -4.085
1 -16.34 -4.085 -4.085
1 -16.34 -2.0425 -2.0425
1 16.34 -4.085 -4.085
1 16.34 -2.0425 -2.0425
1 18.3825 -4.085 -2.0425
1 18.3825 -2.0425 -4.085
1 -20.425 0 -4.085
1 -18.3825 0 -2.0425
1 -18.3825 2.0425 -4.085
1 -16.34 0 -4.085
1 -16.34 2.0425 -2.0425
1 16.34 0 -4.085
1 16.34 2.0425 -2.0425
1 18.3825 0 -2.0425
1 18.3825 2.0425 -4.085
1 20.425 0 -4.085
1 -18.3825 4.085 -2.0425
1 -18.3825 6.1275 -4.085
1 -16.34 4.085 -4.085
1 -16.34 6.1275 -2.0425
1 -14.2975 6.1275 -4.085
1 14.2975 6.1275 -4.085
1 16.34 4.085 -4.085
1 16.34 6.1275 -2.0425
1 18.3825 4.085 -2.0425
1 18.3825 6.1275 -4.085
1 -16.34 8.17 -4.085
1 -16.34 10.2125 -2.0425
1 -14.2975 8.17 -2.0425
1 -14.2975 10.2125 -4.085
1 14.2975 8.17 -2.0425
1 14.2975 10.2125 -4.085
1 16.34 8.17 -4.085
1 16.34 10.2125 -2.0425
1 -16.34 12.255 -4.085
1 -14.2975 12.255 -2.0425
1 -14.2975 14.2975 -4.085
1 -12.255 12.255 -4.085
1 -12.255 14.2975 -2.0425
1 -10.2125 14.2975 -4.085
1 10.2125 14.2975 -4.085
1 12.255 12.255 -4.085
1 12.255 14.2975 -2.0425
1 14.2975 12.255 -2.0425
1 14.2975 14.2975 -4.085
1 16.34 12.255 -4.085
1 -14.2975 16.34 -2.0425
1 -12.255 16.34 -4.085
1 -12.255 18.3825 -2.0425
1 -10.2125 16.34 -2.0425
1 -10.2125 18.3825 -4.085
1 -8.17 16.34 -4.085
1 -8.17 18.3825 -2.0425
1 -6.1275 16.34 -2.0425
1 -6.1275 18.3825 -4.085
1 -4.085 16.34 -4.085
1 -4.085 18.3825 -2.0425
1 -2.0425 16.34 -2.0425
1 -2.0425 18.3825 -4.085
1 0 16.34 -4.085
1 0 18.3825 -2.0425
1 2.0425 16.34 -2.0425
1 2.0425 18.3825 -4.085
1 4.085 16.34 -4.085
1 4.085 18.3825 -2.0425
1 6.1275 16.34 -2.0425
1 6.1275 18.3825 -4.085
1 8.17 16.34 -4.085
1 8.17 18.3825 -2.0425
1 10.2125 16.34 -2.0425
1 10.2125 18.3825 -4.085
1 12.255 16.34 -4.085
1 12.255 18.3825 -2.0425
1 14.2975 16.34 -2.0425
1 -12.255 -20.425 0
1 -12.255 -18.3825 2.0425
1 -10.2125 -18.3825 0
1 -8.17 -20.425 0
1 -8.17 -18.3825 2.0425
1 -6.1275 -18.3825 0
1 -4.085 -20.425 0
1 -4.085 -18.3825 2.0425
1 -2.0425 -18.3825 0
1 0 -20.425 0
1 0 -18.3825 2.0425
1 2.0425 -18.3825 0
1 4.085 -20.425 0
1 4.085 -18.3825 2.0425
1 6.1275 -18.3825 0
1 8.17 -20.425 0
1 8.17 -18.3825 2.0425
1 10.2125 -18.3825 0
1 12.255 -20.425 0
1 12.255 -18.3825 2.0425
1 -14.2975 -16.34 2.0425
1 -14.2975 -14.2975 0
1 -12.255 -16.34 0
1 -12.255 -14.2975 2.0425
1 -10.2125 -16.34 2.0425
1 -8.17 -16.34 0
1 -6.1275 -16.34 2.0425
1 -4.085 -16.34 0
1 -2.0425 -16.34 2.0425
1 0 -16.34 0
1 2.0425 -16.34 2.0425
1 4.085 -16.34 0
1 6.1275 -16.34 2.0425
1 8.17 -16.34 0
1 10.2125 -16.34 2.0425
1 12.255 -16.34 0
1 12.255 -14.2975 2.0425
1 14.2975 -16.34 2.0425
1 14.2975 -14.2975 0
1 -16.34 -12.255 0
1 -16.34 -10.2125 2.0425
1 -14.2975 -12.255 2.0425
1 -14.2975 -10.2125 0
1 -12.255 -12.255 0
1 12.255 -12.255 0
1 14.2975 -12.255 2.0425
1 14.2975 -10.2125 0
1 16.34 -12.255 0
1 16.34 -10.2125 2.0425
1 -18.3825 -6.1275 0
1 -16.34 -8.17 0
1 -16.34 -6.1275 2.0425
1 -14.2975 -8.17 2.0425
1 -14.2975 -6.1275 0
1 14.2975 -8.17 2.0425
1 14.2975 -6.1275 0
1 16.34 -8.17 0
1 16.34 -6.1275 2.0425
1 18.3825 -6.1275 0
1 -18.3825 -4.085 2.0425
1 -18.3825 -2.0425 0
1 -16.34 -4.085 0
1 -16.34 -2.0425 2.0425
1 16.34 -4.085 0
1 16.34 -2.0425 2.0425
1 18.3825 -4.085 2.0425
1 18.3825 -2.0425 0
1 -20.425 0 0
1 -18.3825 0 2.0425
1 -18.3825 2.0425 0
1 -16.34 0 0
1 -16.34 2.0425 2.0425
1 16.34 0 0
1 16.34 2.0425 2.0425
1 18.3825 0 2.0425
1 18.3825 2.0425 0
1 20.425 0 0
1 -18.3825 4.085 2.0425
1 -18.3825 6.1275 0
1 -16.34 4.085 0
1 -16.34 6.1275 2.0425
1 -14.2975 6.1275 0
1 14.2975 6.1275 0
1 16.34 4.085 0
1 16.34 6.1275 2.0425
1 18.3825 4.085 2.0425
1 18.3825 6.1275 0
1 -16.34 8.17 0
1 -16.34 10.2125 2.0425
1 -14.2975 8.17 2.0425
1 -14.2975 10.2125 0
1 14.2975 8.17 2.0425
1 14.2975 10.2125 0
1 16.34 8.17 0
1 16.34 10.2125 2.0425
1 -16.34 12.255 0
1 -14.2975 12.255 2.0425
1 -14.2975 14.2975 0
1 -12.255 12.255 0
1 -12.255 14.2975 2.0425
1 12.255 12.255 0
1 12.255 14.2975 2.0425
1 14.2975 12.255 2.0425
1 14.2975 14.2975 0
1 16.34 12.255 0
1 -14.2975 16.34 2.0425
1 -12.255 16.34 0
1 -12.255 18.3825 2.0425
1 -10.2125 16.34 2.0425
1 -10.2125 18.3825 0
1 -8.17 16.34 0
1 -8.17 18.3825 2.0425
1 -6.1275 16.34 2.0425
1 -6.1275 18.3825 0
1 -4.085 16.34 0
1 -4.085 18.3825 2.0425
1 -2.0425 16.34 2.0425
1 -2.0425 18.3825 0
1 0 16.34 0
1 0 18.3825 2.0425
1 2.0425 16.34 2.0425
1 2.0425 18.3825 0
1 4.085 16.34 0
1 4.085 18.3825 2.0425
1 6.1275 16.34 2.0425
1 6.1275 18.3825 0
1 8.17 16.34 0
1 8.17 18.3825 2.0425
1 10.2125 16.34 2.0425
1 10.2125 18.3825 0
1 12.255 16.34 0
1 12.255 18.3825 2.0425
1 14.2975 16.34 2.0425
1 -12.255 20.425 0
1 -8.17 20.425 0
1 -4.085 20.425 0
1 0 20.425 0
1 4.085 20.425 0
1 8.17 20.425 0
1 12.255 20.425 0
1 -10.2125 -18.3825 4.085
1 -8.17 -18.3825 6.1275
1 -6.1275 -18.3825 4.085
1 -4.085 -18.3825 6.1275
1 -2.0425 -18.3825 4.085
1 0 -18.3825 6.1275
1 2.0425 -18.3825 4.085
1 4.085 -18.3825 6.1275
1 6.1275 -18.3825 4.085
1 8.17 -18.3825 6.1275
1 10.2125 -18.3825 4.085
1 -14.2975 -14.2975 4.085
1 -12.255 -16.34 4.085
1 -12.255 -14.2975 6.1275
1 -10.2125 -16.34 6.1275
1 -10.2125 -14.2975 4.085
1 -8.17 -16.34 4.085
1 -8.17 -14.2975 6.1275
1 -6.1275 -16.34 6.1275
1 -4.085 -16.34 4.085
1 -4.085 -14.2975 6.1275
1 -2.0425 -16.34 6.1275
1 0 -16.34 4.085
1 0 -14.2975 6.1275
1 2.0425 -16.34 6.1275
1 4.085 -16.34 4.085
1 4.085 -14.2975 6.1275
1 6.1275 -16.34 6.1275
1 8.17 -16.34 4.085
1 8.17 -14.2975 6.1275
1 10.2125 -16.34 6.1275
1 10.2125 -14.2975 4.085
1 12.255 -16.34 4.085
1 12.255 -14.2975 6.1275
1 14.2975 -14.2975 4.085
1 -16.34 -12.255 4.085
1 -16.34 -10.2125 6.1275
1 -14.2975 -12.255 6.1275
1 -14.2975 -10.2125 4.085
1 -12.255 -12.255 4.085
1 -12.255 -10.2125 6.1275
1 -10.2125 -12.255 6.1275
1 10.2125 -12.255 6.1275
1 12.255 -12.255 4.085
1 12.255 -10.2125 6.1275
1 14.2975 -12.255 6.1275
1 14.2975 -10.2125 4.085
1 16.34 -12.255 4.085
1 16.34 -10.2125 6.1275
1 -18.3825 -6.1275 4.085
1 -16.34 -8.17 4.085
1 -16.34 -6.1275 6.1275
1 -14.2975 -8.17 6.1275
1 -14.2975 -6.1275 4.085
1 14.2975 -8.17 6.1275
1 14.2975 -6.1275 4.085
1 16.34 -8.17 4.085
1 16.34 -6.1275 6.1275
1 18.3825 -6.1275 4.085
1 -18.3825 -4.085 6.1275
1 -18.3825 -2.0425 4.085
1 -16.34 -4.085 4.085
1 -16.34 -2.0425 6.1275
1 16.34 -4.085 4.085
1 16.34 -2.0425 6.1275
1 18.3825 -4.085 6.1275
1 18.3825 -2.0425 4.085
1 -20.425 0 4.085
1 -18.3825 0 6.1275
1 -18.3825 2.0425 4.085
1 -16.34 0 4.085
1 -16.34 2.0425 6.1275
1 16.34 0 4.085
1 16.34 2.0425 6.1275
1 18.3825 0 6.1275
1 18.3825 2.0425 4.085
1 20.425 0 4.085
1 -18.3825 4.085 6.1275
1 -18.3825 6.1275 4.085
1 -16.34 4.085 4.085
1 -16.34 6.1275 6.1275
1 -14.2975 6.1275 4.085
1 14.2975 6.1275 4.085
1 16.34 4.085 4.085
1 16.34 6.1275 6.1275
1 18.3825 4.085 6.1275
1 18.3825 6.1275 4.085
1 -16.34 8.17 4.085
1 -16.34 10.2125 6.1275
1 -14.2975 8.17 6.1275
1 -14.2975 10.2125 4.085
1 -12.255 10.2125 6.1275
1 12.255 10.2125 6.1275
1 14.2975 8.17 6.1275
1 14.2975 10.2125 4.085
1 16.34 8.17 4.085
1 16.34 10.2125 6.1275
1 -16.34 12.255 4.085
1 -14.2975 12.255 6.1275
1 -14.2975 14.2975 4.085
1 -12.255 12.255 4.085
1 -12.255 14.2975 6.1275
1 -10.2125 12.255 6.1275
1 -10.2125 14.2975 4.085
1 -8.17 14.2975 6.1275
1 -4.085 14.2975 6.1275
1 0 14.2975 6.1275
1 4.085 14.2975 6.1275
1 8.17 14.2975 6.1275
1 10.2125 12.255 6.1275
1 10.2125 14.2975 4.085
1 12.255 12.255 4.085
1 12.255 14.2975 6.1275
1 14.2975 12.255 6.1275
1 14.2975 14.2975 4.085
1 16.34 12.255 4.085
1 -12.255 16.34 4.085
1 -10.2125 16.34 6.1275
1 -10.2125 18.3825 4.085
1 -8.17 16.34 4.085
1 -8.17 18.3825 6.1275
1 -6.1275 16.34 6.1275
1 -6.1275 18.3825 4.085
1 -4.085 16.34 4.085
1 -4.085 18.3825 6.1275
1 -2.0425 16.34 6.1275
1 -2.0425 18.3825 4.085
1 0 16.34 4.085
1 0 18.3825 6.1275
1 2.0425 16.34 6.1275
1 2.0425 18.3825 4.085
1 4.085 16.34 4.085
1 4.085 18.3825 6.1275
1 6.1275 16.34 6.1275
1 6.1275 18.3825 4.085
1 8.17 16.34 4.085
1 8.17 18.3825 6.1275
1 10.2125 16.34 6.1275
1 10.2125 18.3825 4.085
1 12.255 16.34 4.085
1 -10.2125 -14.2975 8.17
1 -8.17 -16.34 8.17
1 -8.17 -14.2975 10.2125
1 -6.1275 -16.34 10.2125
1 -6.1275 -14.2975 8.17
1 -4.085 -16.34 8.17
1 -4.085 -14.2975 10.2125
1 -2.0425 -16.34 10.2125
1 -2.0425 -14.2975 8.17
1 0 -16.34 8.17
1 0 -14.2975 10.2125
1 2.0425 -16.34 10.2125
1 2.0425 -14.2975 8.17
1 4.085 -16.34 8.17
1 4.085 -14.2975 10.2125
1 6.1275 -16.34 10.2125
1 6.1275 -14.2975 8.17
1 8.17 -16.34 8.17
1 8.17 -14.2975 10.2125
1 10.2125 -14.2975 8.17
1 -14.2975 -10.2125 8.17
1 -12.255 -12.255 8.17
1 -12.255 -10.2125 10.2125
1 -10.2125 -12.255 10.2125
1 -10.2125 -10.2125 8.17
1 -8.17 -12.255 8.17
1 -8.17 -10.2125 10.2125
1 -6.1275 -12.255 10.2125
1 6.1275 -12.255 10.2125
1 8.17 -12.255 8.17
1 8.17 -10.2125 10.2125
1 10.2125 -12.255 10.2125
1 10.2125 -10.2125 8.17
1 12.255 -12.255 8.17
1 12.255 -10.2125 10.2125
1 14.2975 -10.2125 8.17
1 -18.3825 -6.1275 8.17
1 -16.34 -8.17 8.17
1 -16.34 -6.1275 10.2125
1 -14.2975 -8.17 10.2125
1 -14.2975 -6.1275 8.17
1 -12.255 -8.17 8.17
1 -12.255 -6.1275 10.2125
1 -10.2125 -8.17 10.2125
1 10.2125 -8.17 10.2125
1 12.255 -8.17 8.17
1 12.255 -6.1275 10.2125
1 14.2975 -8.17 10.2125
1 14.2975 -6.1275 8.17
1 16.34 -8.17 8.17
1 16.34 -6.1275 10.2125
1 18.3825 -6.1275 8.17
1 -18.3825 -4.085 10.2125
1 -18.3825 -2.0425 8.17
1 -16.34 -4.085 8.17
1 -16.34 -2.0425 10.2125
1 -14.2975 -4.085 10.2125
1 14.2975 -4.085 10.2125
1 16.34 -4.085 8.17
1 16.34 -2.0425 10.2125
1 18.3825 -4.085 10.2125
1 18.3825 -2.0425 8.17
1 -20.425 0 8.17
1 -18.3825 0 10.2125
1 -18.3825 2.0425 8.17
1 -16.34 0 8.17
1 -16.34 2.0425 10.2125
1 16.34 0 8.17
1 16.34 2.0425 10.2125
1 18.3825 0 10.2125
1 18.3825 2.0425 8.17
1 20.425 0 8.17
1 -18.3825 4.085 10.2125
1 -18.3825 6.1275 8.17
1 -16.34 4.085 8.17
1 -16.34 6.1275 10.2125
1 -14.2975 4.085 10.2125
1 -14.2975 6.1275 8.17
1 -12.255 6.1275 10.2125
1 12.255 6.1275 10.2125
1 14.2975 4.085 10.2125
1 14.2975 6.1275 8.17
1 16.34 4.085 8.17
1 16.34 6.1275 10.2125
1 18.3825 4.085 10.2125
1 18.3825 6.1275 8.17
1 -16.34 8.17 8.17
1 -14.2975 8.17 10.2125
1 -14.2975 10.2125 8.17
1 -12.255 8.17 8.17
1 -12.255 10.2125 10.2125
1 -10.2125 8.17 10.2125
1 -10.2125 10.2125 8.17
1 -8.17 10.2125 10.2125
1 8.17 10.2125 10.2125
1 10.2125 8.17 10.2125
1 10.2125 10.2125 8.17
1 12.255 8.17 8.17
1 12.255 10.2125 10.2125
1 14.2975 8.17 10.2125
1 14.2975 10.2125 8.17
1 16.34 8.17 8.17
1 -12.255 12.255 8.17
1 -10.2125 12.255 10.2125
1 -10.2125 14.2975 8.17
1 -8.17 12.255 8.17
1 -8.17 14.2975 10.2125
1 -6.1275 12.255 10.2125
1 -6.1275 14.2975 8.17
1 -4.085 14.2975 10.2125
1 -2.0425 14.2975 8.17
1 0 14.2975 10.2125
1 2.0425 14.2975 8.17
1 4.085 14.2975 10.2125
1 6.1275 12.255 10.2125
1 6.1275 14.2975 8.17
1 8.17 12.255 8.17
1 8.17 14.2975 10.2125
1 10.2125 12.255 10.2125
1 10.2125 14.2975 8.17
1 12.255 12.255 8.17
1 -8.17 16.34 8.17
1 -6.1275 16.34 10.2125
1 -4.085 16.34 8.17
1 -2.0425 16.34 10.2125
1 0 16.34 8.17
1 2.0425 16.34 10.2125
1 4.085 16.34 8.17
1 6.1275 16.34 10.2125
1 8.17 16.34 8.17
1 -6.1275 -14.2975 12.255
1 -4.085 -16.34 12.255
1 -4.085 -14.2975 14.2975
1 -2.0425 -14.2975 12.255
1 0 -16.34 12.255
1 0 -14.2975 14.2975
1 2.0425 -14.2975 12.255
1 4.085 -16.34 12.255
1 4.085 -14.2975 14.2975
1 6.1275 -14.2975 12.255
1 -10.2125 -10.2125 12.255
1 -8.17 -12.255 12.255
1 -8.17 -10.2125 14.2975
1 -6.1275 -12.255 14.2975
1 -6.1275 -10.2125 12.255
1 -4.085 -12.255 12.255
1 -4.085 -10.2125 14.2975
1 -2.0425 -12.255 14.2975
1 0 -12.255 12.255
1 2.0425 -12.255 14.2975
1 4.085 -12.255 12.255
1 4.085 -10.2125 14.2975
1 6.1275 -12.255 14.2975
1 6.1275 -10.2125 12.255
1 8.17 -12.255 12.255
1 8.17 -10.2125 14.2975
1 10.2125 -10.2125 12.255
1 -14.2975 -6.1275 12.255
1 -12.255 -8.17 12.255
1 -12.255 -6.1275 14.2975
1 -10.2125 -8.17 14.2975
1 -10.2125 -6.1275 12.255
1 -8.17 -8.17 12.255
1 -8.17 -6.1275 14.2975
1 -6.1275 -8.17 14.2975
1 6.1275 -8.17 14.2975
1 8.17 -8.17 12.255
1 8.17 -6.1275 14.2975
1 10.2125 -8.17 14.2975
1 10.2125 -6.1275 12.255
1 12.255 -8.17 12.255
1 12.255 -6.1275 14.2975
1 14.2975 -6.1275 12.255
1 -18.3825 -2.0425 12.255
1 -16.34 -4.085 12.255
1 -16.34 -2.0425 14.2975
1 -14.2975 -4.085 14.2975
1 -14.2975 -2.0425 12.255
1 -12.255 -4.085 12.255
1 -12.255 -2.0425 14.2975
1 -10.2125 -4.085 14.2975
1 -8.17 -2.0425 14.2975
1 -6.1275 -4.085 14.2975
1 6.1275 -4.085 14.2975
1 8.17 -2.0425 14.2975
1 10.2125 -4.085 14.2975
1 12.255 -4.085 12.255
1 12.255 -2.0425 14.2975
1 14.2975 -4.085 14.2975
1 14.2975 -2.0425 12.255
1 16.34 -4.085 12.255
1 16.34 -2.0425 14.2975
1 18.3825 -2.0425 12.255
1 -20.425 0 12.255
1 -18.3825 2.0425 12.255
1 -16.34 0 12.255
1 -16.34 2.0425 14.2975
1 -14.2975 0 14.2975
1 -14.2975 2.0425 12.255
1 -12.255 0 12.255
1 -12.255 2.0425 14.2975
1 -10.2125 0 14.2975
1 -8.17 2.0425 14.2975
1 -6.1275 0 14.2975
1 6.1275 0 14.2975
1 8.17 2.0425 14.2975
1 10.2125 0 14.2975
1 12.255 0 12.255
1 12.255 2.0425 14.2975
1 14.2975 0 14.2975
1 14.2975 2.0425 12.255
1 16.34 0 12.255
1 16.34 2.0425 14.2975
1 18.3825 2.0425 12.255
1 20.425 0 12.255
1 -16.34 4.085 12.255
1 -14.2975 4.085 14.2975
1 -14.2975 6.1275 12.255
1 -12.255 4.085 12.255
1 -12.255 6.1275 14.2975
1 -10.2125 4.085 14.2975
1 -10.2125 6.1275 12.255
1 -8.17 6.1275 14.2975
1 -6.1275 4.085 14.2975
1 6.1275 4.085 14.2975
1 8.17 6.1275 14.2975
1 10.2125 4.085 14.2975
1 10.2125 6.1275 12.255
1 12.255 4.085 12.255
1 12.255 6.1275 14.2975
1 14.2975 4.085 14.2975
1 14.2975 6.1275 12.255
1 16.34 4.085 12.255
1 -12.255 8.17 12.255
1 -10.2125 8.17 14.2975
1 -10.2125 10.2125 12.255
1 -8.17 8.17 12.255
1 -8.17 10.2125 14.2975
1 -6.1275 8.17 14.2975
1 -6.1275 10.2125 12.255
1 -4.085 10.2125 14.2975
1 4.085 10.2125 14.2975
1 6.1275 8.17 14.2975
1 6.1275 10.2125 12.255
1 8.17 8.17 12.255
1 8.17 10.2125 14.2975
1 10.2125 8.17 14.2975
1 10.2125 10.2125 12.255
1 12.255 8.17 12.255
1 -8.17 12.255 12.255
1 -6.1275 12.255 14.2975
1 -6.1275 14.2975 12.255
1 -4.085 12.255 12.255
1 -4.085 14.2975 14.2975
1 -2.0425 12.255 14.2975
1 -2.0425 14.2975 12.255
1 0 12.255 12.255
1 0 14.2975 14.2975
1 2.0425 12.255 14.2975
1 2.0425 14.2975 12.255
1 4.085 12.255 12.255
1 4.085 14.2975 14.2975
1 6.1275 12.255 14.2975
1 6.1275 14.2975 12.255
1 8.17 12.255 12.255
1 -4.085 16.34 12.255
1 0 16.34 12.255
1 4.085 16.34 12.255
1 -2.0425 -14.2975 16.34
1 2.0425 -14.2975 16.34
1 -6.1275 -10.2125 16.34
1 -4.085 -12.255 16.34
1 -4.085 -10.2125 18.3825
1 -2.0425 -12.255 18.3825
1 -2.0425 -10.2125 16.34
1 0 -12.255 16.34
1 0 -10.2125 18.3825
1 2.0425 -12.255 18.3825
1 2.0425 -10.2125 16.34
1 4.085 -12.255 16.34
1 4.085 -10.2125 18.3825
1 6.1275 -10.2125 16.34
1 -10.2125 -6.1275 16.34
1 -8.17 -8.17 16.34
1 -6.1275 -8.17 18.3825
1 -6.1275 -6.1275 16.34
1 -4.085 -8.17 16.34
1 -4.085 -6.1275 18.3825
1 -2.0425 -8.17 18.3825
1 -2.0425 -6.1275 16.34
1 0 -8.17 16.34
1 0 -6.1275 18.3825
1 2.0425 -8.17 18.3825
1 2.0425 -6.1275 16.34
1 4.085 -8.17 16.34
1 4.085 -6.1275 18.3825
1 6.1275 -8.17 18.3825
1 6.1275 -6.1275 16.34
1 8.17 -8.17 16.34
1 10.2125 -6.1275 16.34
1 -12.255 -4.085 16.34
1 -10.2125 -2.0425 16.34
1 -8.17 -4.085 16.34
1 -6.1275 -4.085 18.3825
1 -6.1275 -2.0425 16.34
1 -4.085 -4.085 16.34
1 -4.085 -2.0425 18.3825
1 -2.0425 -4.085 18.3825
1 -2.0425 -2.0425 16.34
1 0 -4.085 16.34
1 0 -2.0425 18.3825
1 2.0425 -4.085 18.3825
1 2.0425 -2.0425 16.34
1 4.085 -4.085 16.34
1 4.085 -2.0425 18.3825
1 6.1275 -4.085 18.3825
1 6.1275 -2.0425 16.34
1 8.17 -4.085 16.34
1 10.2125 -2.0425 16.34
1 12.255 -4.085 16.34
1 -12.255 0 16.34
1 -10.2125 2.0425 16.34
1 -8.17 0 16.34
1 -6.1275 0 18.3825
1 -6.1275 2.0425 16.34
1 -4.085 0 16.34
1 -4.085 2.0425 18.3825
1 -2.0425 0 18.3825
1 -2.0425 2.0425 16.34
1 0 0 16.34
1 0 2.0425 18.3825
1 2.0425 0 18.3825
1 2.0425 2.0425 16.34
1 4.085 0 16.34
1 4.085 2.0425 18.3825
1 6.1275 0 18.3825
1 6.1275 2.0425 16.34
1 8.17 0 16.34
1 10.2125 2.0425 16.34
1 12.255 0 16.34
1 -12.255 4.085 16.34
1 -10.2125 6.1275 16.34
1 -8.17 4.085 16.34
1 -6.1275 4.085 18.3825
1 -6.1275 6.1275 16.34
1 -4.085 4.085 16.34
1 -4.085 6.1275 18.3825
1 -2.0425 4.085 18.3825
1 -2.0425 6.1275 16.34
1 0 4.085 16.34
1 0 6.1275 18.3825
1 2.0425 4.085 18.3825
1 2.0425 6.1275 16.34
1 4.085 4.085 16.34
1 4.085 6.1275 18.3825
1 6.1275 4.085 18.3825
1 6.1275 6.1275 16.34
1 8.17 4.085 16.34
1 10.2125 6.1275 16.34
1 12.255 4.085 16.34
1 -8.17 8.17 16.34
1 -6.1275 8.17 18.3825
1 -6.1275 10.2125 16.34
1 -4.085 8.17 16.34
1 -4.085 10.2125 18.3825
1 -2.0425 8.17 18.3825
1 -2.0425 10.2125 16.34
1 0 8.17 16.34
1 0 10.2125 18.3825
1 2.0425 8.17 18.3825
1 2.0425 10.2125 16.34
1 4.085 8.17 16.34
1 4.085 10.2125 18.3825
1 6.1275 8.17 18.3825
1 6.1275 10.2125 16.34
1 8.17 8.17 16.34
1 -4.085 12.255 16.34
1 -2.0425 12.255 18.3825
1 -2.0425 14.2975 16.34
1 0 12.255 16.34
1 2.0425 12.255 18.3825
1 2.0425 14.2975 16.34
1 4.085 12.255 16.34
1 0 -12.255 20.425
1 0 -8.17 20.425
1 0 -4.085 20.425
1 0 0 20.425
1 0 4.085 20.425
1 0 8.17 20.425
1 0 12.255 20.425
4 -9.54141 -17.9837 7.84895
2 -10.1833 -19.6597 8.16288
2 -11.0134 -19.8127 9.4541
2 -11.5281 -21.2614 9.595
2 -12.3792 -21.385 10.8746
2 -12.916 -22.8265 11.0157
2 -13.7655 -22.9407 12.2986
2 -14.3018 -24.3813 12.4502
2 -15.1074 -24.5011 13.7598
2 -15.621 -25.9467 13.9239
2 -16.3787 -26.0791 15.2606
2 -16.8753 -27.5279 15.4362
3 -17.6075 -27.6619 16.7853
4 2.05205 6.34284 -19.9119
2 2.80292 7.07106 -21.4186
2 1.91779 7.15929 -22.6939
2 2.68721 7.87495 -23.8376
2 1.83199 7.99295 -25.1271
2 2.64272 8.72668 -26.2262
2 1.84659 8.84725 -27.5497
2 2.72015 9.58086 -28.5965
2 1.99398 9.70867 -29.956
2 2.91877 10.4343 -30.9622
2 2.23956 10.5608 -32.3441
2 3.19213 11.2826 -33.323
3 2.53495 11.4073 -34.7122
4 -20.1465 4.65682 3.18928
2 -21.9333 4.66333 2.80846
2 -22.8829 5.32081 3.84544
2 -24.3625 5.20539 3.38216
2 -25.3299 5.83834 4.4184
2 -26.8029 5.70013 3.9514
2 -27.7671 6.32017 4.99367
2 -29.2381 6.18046 4.53062
2 -30.1913 6.79614 5.58277
2 -31.6622 6.66145 5.12531
2 -32.6028 7.27638 6.18638
2 -34.0718 7.14601 5.73181