LAMMPS Description

5  atoms
4  bonds
4  angles
2  dihedrals
0  impropers

6  atom types
4  bond types
4  angle types
5  dihedral types

-50.0 50.0 xlo xhi
-50.0 50.0 ylo yhi
-50.0 50.0 zlo zhi

Masses

1 107.8682
2 14.02658
3 15.03452
4 32.065
5 15.9994
6 1.00794

Atoms

1 1 4 0. -1.838400 0.112400 0.000000
2 1 2 0. -0.820400 -0.449600 0.000000
3 1 2 0. 0.203600 0.112400 0.000000
4 1 2 0. 1.227600 -0.449600 0.000000
5 1 2 0. 1.227600 0.674400 0.000000

Bonds

1 1 1 2
2 2 2 3
3 2 3 4
4 2 3 5

Angles

1 1 1 2 3
2 2 2 3 4
3 2 2 3 5
4 2 4 3 5

Dihedrals

1 1 1 2 3 4
2 1 1 2 3 5

