LAMMPS Description

     5  atoms
     4  bonds
     3  angles
     2  dihedrals
     0  impropers

     4  atom types
     4  bond types
     4  angle types
     4  dihedral types

  -50.0 50.0 xlo xhi
  -50.0 50.0 ylo yhi
  -50.0 50.0 zlo zhi

Masses

		1	14.02658
		2		32.065
		3		15.9994
		4		1.00794

Atoms

1 1 2 0.000 0.138 0.0 -1.654
2 1 1 0.000 0.474 0.0 1.059
3 1 1 0.265 -0.621 0.0 -0.007
4 1 3 -0.700 -0.125 0.0 2.357
5 1 4 0.435 0.598 0.0 2.999

Bonds

1 1 1 2
2 2 2 3
3 3 3 4
4 4 4 5

Angles

1 1 1 2 3
2 3 2 3 4
3 4 3 4 5

Dihedrals

1 3 1 2 3 4
2 4 2 3 4 5

