LAMMPS Description

     20  atoms
     18  bonds
     18  angles
     16  dihedrals
     0  impropers

     8  atom types
     6  bond types
     8  angle types
     9  dihedral types

  -50.0 50.0 xlo xhi
  -50.0 50.0 ylo yhi
  -50.0 50.0 zlo zhi

Masses

1 107.8682  # Ag
2 12.0107  # C0
3 14.02658  # C2
4 15.03452  # C3
5 32.065  # S
6 15.9994  # OH
7 15.9994  # O2
8 1.00794  # H

Atoms  # full

1 1 5 0.000 -2.5006 -0.2063 0.0
2 1 3 0.171 -1.7862 -0.6187 0.0 #[2]
3 1 3 0.000 -1.0717 -0.2063 0.0
4 1 3 0.000 -0.3572 -0.6187 0.0
5 1 3 0.000 0.3572 -0.2063 0.0
6 1 3 0.000 1.0717 -0.6187 0.0
7 1 2 0.420 1.7862 -0.2063 0.0 #[6]
8 1 6 -0.460 2.5006 -0.6187 0.0 #[6]
9 1 7 -0.450 1.7862 0.6187 0.0 #[6]
10 1 8 0.370 3.2236 0.0233 0.0 #[6]
11 2 5 0.000 -2.5006 4.7937 0.0
12 2 3 0.171 -1.7862 4.3812999999999995 0.0 #[2]
13 2 3 0.000 -1.0717 4.7937 0.0
14 2 3 0.000 -0.3572 4.3812999999999995 0.0
15 2 3 0.000 0.3572 4.7937 0.0
16 2 3 0.000 1.0717 4.3812999999999995 0.0
17 2 2 0.420 1.7862 4.7937 0.0 #[6]
18 2 6 -0.460 2.5006 4.3812999999999995 0.0 #[6]
19 2 7 -0.450 1.7862 5.6187000000000005 0.0 #[6]
20 2 8 0.370 3.2236 5.0233 0.0 #[6]

Bonds

1 1 1 2
2 2 2 3
3 2 3 4
4 2 4 5
5 2 5 6
6 2 6 7
7 4 7 8
8 5 7 9
9 6 8 10
10 1 11 12
11 2 12 13
12 2 13 14
13 2 14 15
14 2 15 16
15 2 16 17
16 4 17 18
17 5 17 19
18 6 18 20

Angles

1 1 1 2 3
2 1 11 12 13
3 2 2 3 4
4 2 3 4 5
5 2 4 5 6
6 2 12 13 14
7 2 13 14 15
8 2 14 15 16
9 2 5 6 7
10 2 15 16 17
11 4 6 7 8
12 4 16 17 18
13 5 6 7 9
14 5 16 17 19
15 6 8 7 9
16 6 18 17 19
17 8 7 8 10
18 8 17 18 20

Dihedrals

1 1 1 2 3 4
2 1 11 12 13 14
3 2 2 3 4 5
4 2 3 4 5 6
5 2 12 13 14 15
6 2 13 14 15 16
7 2 4 5 6 7
8 2 14 15 16 17
9 5 5 6 7 8
10 5 15 16 17 18
11 6 5 6 7 9
12 6 15 16 17 19
13 7 9 7 8 10
14 7 19 17 18 20
15 9 6 7 8 10
16 9 16 17 18 20

