LAMMPS Description

     15  atoms
     12  bonds
     9  angles
     6  dihedrals
     0  impropers

     6  atom types
     4  bond types
     4  angle types
     4  dihedral types

  -50.0 50.0 xlo xhi
  -50.0 50.0 ylo yhi
  -50.0 50.0 zlo zhi

Masses

		1	107.8682
		2	14.02658
		3	15.03452
		4		32.065
		5		15.9994
		6		1.00794

Atoms

1 1 4 0.000 0.138 0.0 -1.654
2 1 2 0.000 0.474 0.0 1.059
3 1 2 0.265 -0.621 0.0 -0.007
4 1 5 -0.700 -0.125 0.0 2.357
5 1 6 0.435 0.598 0.0 2.999
6 2 4 0.000 0.138 0.0 3.346
7 2 2 0.000 0.474 0.0 6.059
8 2 2 0.265 -0.621 0.0 4.993
9 2 5 -0.700 -0.125 0.0 7.357
10 2 6 0.435 0.598 0.0 7.999
11 3 4 0.000 0.138 0.0 8.346
12 3 2 0.000 0.474 0.0 11.059
13 3 2 0.265 -0.621 0.0 9.993
14 3 5 -0.700 -0.125 0.0 12.357
15 3 6 0.435 0.598 0.0 12.999

Bonds

1 1 1 2
2 2 2 3
3 3 3 4
4 4 4 5
5 1 6 7
6 2 7 8
7 3 8 9
8 4 9 10
9 1 11 12
10 2 12 13
11 3 13 14
12 4 14 15

Angles

1 1 1 2 3
2 1 6 7 8
3 1 11 12 13
4 3 2 3 4
5 3 7 8 9
6 3 12 13 14
7 4 3 4 5
8 4 8 9 10
9 4 13 14 15

Dihedrals

1 3 1 2 3 4
2 3 6 7 8 9
3 3 11 12 13 14
4 4 2 3 4 5
5 4 7 8 9 10
6 4 12 13 14 15

