18
Atoms. Timestep: 0
4 6.37546 -6.13264 -22.332
2 9.10581 -6.53868 -26.6782
2 9.13598 -7.00729 -27.7439
2 8.21671 -6.71602 -25.9417
2 10.0224 -6.82909 -28.4752
2 8.18294 -6.24628 -24.869
2 10.0526 -7.29769 -29.5409
2 7.29384 -6.42362 -24.1324
2 10.9421 -7.1205 -30.2783
2 10.9741 -7.58967 -31.3475
2 7.26187 -5.95444 -23.0632
2 11.8632 -7.41233 -32.084
3 11.8965 -7.88193 -33.1559
4 -9.9503 10.5875 19.1239
2 -9.54302 11.516 21.6627
2 -9.56742 10.2174 20.8574
5 -9.24116 11.2235 23.029
6 -9.23541 12.0672 23.5013
