2445
Atoms. Timestep: 0
1 -2.0732 -11.922 -18.6512
1 -4.1458 -9.8421 -18.511
1 -2.1823 -9.8166 -20.4347
1 2.1096 -9.7731 -20.6688
1 1.876 -12.0032 -18.7393
1 -0.064 -9.9213 -18.7197
1 3.8659 -10.1102 -18.5324
1 -6.154 -7.9154 -18.4016
1 -8.2914 -6.0058 -18.3085
1 -2.1755 -6.0692 -20.4791
1 -1.9326 -8.0229 -18.4707
1 -4.2504 -6.0552 -18.5539
1 -0.0634 -8.0669 -20.8491
1 2.0182 -6.1798 -20.3648
1 1.9528 -8.0844 -18.4538
1 -0.1328 -6.0422 -18.5912
1 6.0041 -7.9123 -18.3276
1 4.1468 -6.0513 -18.4971
1 8.1306 -5.8975 -18.2294
1 -6.2167 -3.9889 -18.5104
1 -8.3191 -1.9146 -18.5578
1 -2.0248 -2.0834 -20.3769
1 -2.0985 -4.0784 -18.4582
1 -4.2324 -2.0312 -18.5414
1 -0.0573 -4.0533 -20.4097
1 1.9702 -1.8638 -20.4313
1 2.0526 -4.0679 -18.5245
1 -0.0345 -1.9699 -18.4069
1 6.1036 -4.0636 -18.4604
1 4.1243 -2.1278 -18.395
1 8.1782 -1.9541 -18.5609
1 -6.2813 0.0808 -18.7026
1 -8.3662 1.8597 -18.4028
1 -1.919 1.9813 -20.5662
1 -2.2305 0.0124 -18.52
1 -4.2545 2.1534 -18.5773
1 -0.0487 -0.023 -20.1867
1 2.0588 1.9533 -20.4563
1 2.2198 0.0321 -18.4587
1 -0.0239 2.0108 -18.4829
1 6.0306 -0.0766 -18.583
1 4.1063 2.003 -18.5394
1 7.9594 2.0268 -18.618
1 -6.297 4.0459 -18.4217
1 -8.2551 5.9266 -18.4256
1 -2.1531 6.0426 -20.5674
1 -2.0655 4.0071 -18.6611
1 -4.0856 5.9739 -18.4471
1 0.0491 4.0033 -20.7038
1 1.9301 5.9527 -20.5145
1 1.9534 3.9477 -18.6449
1 -0.1203 5.9808 -18.6369
1 5.9952 3.9419 -18.4636
1 4.0267 6.0322 -18.5713
1 8.0325 5.8484 -18.573
1 -6.0915 7.8065 -18.4667
1 -2.0494 10.0117 -20.6547
1 -2.1514 7.9518 -18.5181
1 -3.9914 9.8971 -18.4281
1 -0.0294 7.9346 -20.7197
1 1.9415 9.8828 -20.4165
1 1.9337 7.904 -18.4506
1 -0.121 9.8704 -18.586
1 6.0489 7.8627 -18.4186
1 3.9461 9.8308 -18.5711
1 -2.0786 11.8896 -18.6233
1 -0.0378 11.9399 -20.6272
1 1.8859 11.9173 -18.5532
1 -0.0967 13.9502 -18.6799
1 -2.0758 -13.9676 -16.7311
1 -3.9492 -14.4134 -14.5056
1 1.9464 -13.9181 -16.6856
1 -0.1614 -14.2079 -14.5695
1 3.8859 -14.1667 -14.4578
1 -6.2366 -10.1785 -16.613
1 -6.0952 -12.2411 -14.4849
1 -8.1301 -10.2664 -14.5526
1 -4.1599 -12.1338 -16.5794
1 -2.0099 -10.1441 -16.5385
1 -2.0983 -12.1054 -14.4716
1 -4.1006 -10.1622 -14.6736
1 -0.0755 -12.0486 -16.5541
1 1.9578 -10.1516 -16.4326
1 2.0087 -12.1501 -14.5139
1 -0.1569 -10.1084 -14.4807
1 4.102 -12.0964 -16.4291
1 6.0857 -10.1664 -16.4681
1 5.9722 -12.2935 -14.2361
1 4.1095 -10.0623 -14.4617
1 8.0998 -10.2628 -14.3594
1 -10.174 -6.0359 -16.25
1 -10.4046 -8.3926 -14.4495
1 -12.1833 -6.0894 -14.2414
1 -8.221 -8.1076 -16.5192
1 -6.1813 -5.9559 -16.3997
1 -6.2364 -8.0916 -14.4148
1 -8.1591 -6.0601 -14.342
1 -4.105 -7.987 -16.448
1 -2.2712 -5.8816 -16.5062
1 -2.0493 -8.0301 -14.5523
1 -4.1438 -6.0299 -14.4318
1 -0.0345 -7.8737 -16.4689
1 2.001 -5.9159 -16.4499
1 1.902 -8.0728 -14.5101
1 -0.0444 -5.9658 -14.4216
1 3.8919 -8.0147 -16.5057
1 6.1418 -6.0475 -16.3294
1 6.0205 -8.13 -14.404
1 3.9918 -6.1393 -14.4388
1 8.1398 -8.0837 -16.2798
1 10.1086 -5.8624 -16.258
1 10.1521 -8.1585 -14.3251
1 8.0488 -6.0379 -14.2736
1 12.1762 -6.1091 -14.3266
1 -14.4509 -4.2506 -14.1949
1 -16.5032 -2.0624 -13.9351
1 -12.3169 -3.9897 -16.1389
1 -10.3338 -2.1064 -16.4918
1 -10.2509 -4.0633 -14.3313
1 -12.3509 -2.1812 -14.2494
1 -8.1984 -3.9218 -16.3789
1 -6.2644 -1.9072 -16.5445
1 -6.154 -3.8938 -14.3464
1 -8.3144 -1.9917 -14.3323
1 -4.2501 -3.9216 -16.5154
1 -2.1396 -2.026 -16.4989
1 -1.9812 -4.1148 -14.4297
1 -4.1104 -2.0524 -14.4677
1 -0.0203 -4.043 -16.5769
1 2.0169 -2.0387 -16.3772
1 1.9354 -4.0715 -14.2769
1 -0.0254 -1.9058 -14.4109
1 3.9983 -4.0515 -16.2966
1 6.1991 -2.014 -16.4052
1 6.0454 -4.1076 -14.3368
1 4.0349 -1.9945 -14.286
1 8.164 -3.7876 -16.3667
1 10.3422 -1.9038 -16.4572
1 10.1062 -3.9777 -14.3457
1 8.1167 -1.7322 -14.3582
1 12.1748 -3.9023 -16.1522
1 14.3692 -4.054 -14.179
1 12.2216 -1.9415 -14.1144
1 16.397 -2.0207 -14.0649
1 -18.568 -0.0499 -14.0001
1 -14.4063 -0.1585 -14.0672
1 -16.5426 2.0754 -13.9913
1 -12.4319 -0.1489 -16.2867
1 -10.3544 1.8603 -16.4066
1 -10.5486 -0.0678 -14.1953
1 -12.4087 1.981 -14.1418
1 -8.3789 -0.1272 -16.4615
1 -6.3061 1.8164 -16.5197
1 -6.3221 -0.0404 -14.4311
1 -8.3269 1.8611 -14.441
1 -4.1977 -0.0759 -16.5364
1 -2.2416 2.0014 -16.533
1 -2.2025 -0.1108 -14.4282
1 -4.154 1.7946 -14.3513
1 -0.1175 0.1302 -16.4388
1 2.0201 1.8812 -16.4686
1 2.1935 -0.0397 -14.273
1 -0.0906 2.02 -14.4561
1 4.175 -0.0431 -16.5207
1 6.1676 1.9624 -16.4842
1 6.1427 0.2127 -14.3856
1 4.1336 2.0377 -14.5631
1 8.2931 -0.0458 -16.5686
1 10.1072 2.0791 -16.5101
1 10.269 0.142 -14.4492
1 8.129 2.0487 -14.3314
1 12.3926 -0.1033 -16.2685
1 14.3867 -0.1065 -14.2006
1 12.4403 1.9486 -14.2714
1 18.4176 0.1172 -13.9732
1 16.4409 2.1112 -14.089
1 -14.3709 4.0833 -14.2475
1 -12.3155 3.9211 -16.1849
1 -10.2234 5.9073 -16.3071
1 -10.3198 4.0393 -14.2644
1 -12.2223 6.0368 -14.2957
1 -8.3818 3.9732 -16.3748
1 -6.2253 6.1196 -16.341
1 -6.1237 3.9324 -14.483
1 -8.2354 5.8913 -14.306
1 -4.247 4.0076 -16.4774
1 -2.1583 5.8754 -16.4816
1 -2.1023 3.9631 -14.4143
1 -4.0725 5.9582 -14.3195
1 -0.1088 4.0607 -16.4933
1 1.9407 5.9336 -16.5182
1 2.0403 3.9704 -14.3956
1 -0.0975 5.8689 -14.3852
1 3.8904 4.0736 -16.5752
1 6.0092 6.0198 -16.3647
1 6.1213 3.9972 -14.4011
1 3.9136 6.0158 -14.4226
1 8.083 4.0226 -16.5118
1 10.0669 5.7989 -16.4563
1 10.2414 3.9633 -14.3601
1 8.1068 5.8523 -14.3507
1 12.2503 3.985 -16.3138
1 14.3508 4.1667 -14.2586
1 12.1624 6.0088 -14.3928
1 -10.1513 8.0788 -14.4036
1 -8.1226 7.9579 -16.4328
1 -6.0991 9.9394 -16.4456
1 -6.1524 7.9889 -14.2886
1 -8.1575 10.0812 -14.4259
1 -4.0005 7.9323 -16.4026
1 -1.96 10.0252 -16.4864
1 -2.116 7.8618 -14.3908
1 -4.0164 10.0354 -14.4396
1 -0.1743 7.8589 -16.4523
1 1.8552 9.8852 -16.4121
1 2.0436 8.1274 -14.4066
1 -0.1125 10.0793 -14.4621
1 3.8763 8.0554 -16.4306
1 6.055 9.9427 -16.4492
1 6.0885 7.9708 -14.3865
1 4.0312 10.0923 -14.4595
1 8.0574 7.9211 -16.4954
1 10.1058 8.0999 -14.6316
1 8.114 10.027 -14.4754
1 -6.1058 12.1636 -14.568
1 -4.0627 11.9584 -16.518
1 -2.0963 14.0544 -16.5269
1 -2.0691 12.1777 -14.4459
1 -4.0662 14.1604 -14.5226
1 -0.0652 12.0581 -16.5066
1 1.955 13.9566 -16.5027
1 2.0167 12.0345 -14.422
1 -0.0492 14.0634 -14.4505
1 3.9609 11.9763 -16.5873
1 5.922 11.8893 -14.4582
1 3.9125 14.1078 -14.495
1 -5.9994 -14.3057 -12.4766
1 -5.9128 -16.2841 -10.3422
1 -8.2 -14.4069 -10.3652
1 -3.8667 -16.1498 -12.4664
1 -2.0501 -14.1869 -12.5093
1 -2.1063 -16.5564 -10.3664
1 -3.9206 -14.2125 -10.3795
1 -0.19 -16.351 -12.4389
1 1.7856 -14.3259 -12.4464
1 1.9063 -16.5659 -10.3851
1 -0.0937 -14.437 -10.5278
1 3.758 -16.2464 -12.416
1 5.9131 -14.4356 -12.4291
1 5.8318 -16.3268 -10.3012
1 3.8723 -14.455 -10.4243
1 8.0673 -14.427 -10.1972
1 -10.2825 -10.4437 -12.5543
1 -10.2814 -12.3762 -10.4646
1 -12.326 -10.4593 -10.4068
1 -8.0753 -12.3281 -12.3196
1 -6.1166 -10.2423 -12.5818
1 -6.0722 -12.435 -10.3653
1 -8.1854 -10.2919 -10.428
1 -4.1156 -12.3339 -12.5966
1 -2.0427 -10.2115 -12.4406
1 -1.9659 -12.2015 -10.3073
1 -4.0905 -10.3968 -10.623
1 -0.0186 -12.1418 -12.4618
1 2.0071 -10.2984 -12.3284
1 2.0267 -12.3388 -10.2367
1 -0.0495 -10.3789 -10.3728
1 3.9376 -12.3528 -12.3716
1 6.1144 -10.1636 -12.3101
1 6.0425 -12.498 -10.3864
1 4.0197 -10.3837 -10.4226
1 8.1763 -12.6869 -12.369
1 10.0386 -10.2758 -12.3285
1 10.1881 -12.395 -10.3218
1 8.1461 -10.4136 -10.3728
1 12.2762 -10.3162 -10.2581
1 -14.373 -6.1176 -12.1454
1 -14.1955 -8.2959 -10.3912
1 -16.2635 -6.0926 -10.1675
1 -12.3397 -8.4357 -12.4024
1 -10.1489 -6.2375 -12.3843
1 -10.3616 -8.3558 -10.3442
1 -12.2443 -6.146 -10.3198
1 -8.2794 -8.3528 -12.3472
1 -6.0961 -6.1843 -12.2683
1 -6.1217 -8.2832 -10.3384
1 -8.1674 -6.3316 -10.3657
1 -4.0195 -8.2045 -12.4969
1 -2.0573 -6.1529 -12.3568
1 -2.1636 -8.1027 -10.3965
1 -4.0865 -6.0832 -10.3562
1 -0.0605 -8.1024 -12.4602
1 1.9111 -6.1284 -12.2934
1 1.9284 -8.1399 -10.2361
1 -0.0677 -5.9888 -10.2199
1 3.8808 -8.2495 -12.3761
1 6.1095 -6.2437 -12.3075
1 6.1028 -8.2918 -10.3077
1 4.1264 -6.2123 -10.3043
1 8.2092 -8.1815 -12.2986
1 10.2869 -6.1955 -12.3763
1 10.2581 -8.1443 -10.2457
1 8.1274 -6.2121 -10.2334
1 12.1719 -8.2946 -12.4473
1 14.1942 -6.0473 -12.2166
1 14.3069 -8.2015 -10.2446
1 12.201 -6.1984 -10.2862
1 16.3777 -6.3228 -10.0874
1 -18.5105 -1.9749 -12.2185
1 -18.3113 -4.1807 -10.161
1 -20.4347 -2.2312 -10.0371
1 -16.3551 -4.1092 -12.1918
1 -14.2661 -2.1058 -12.1134
1 -14.3595 -4.1737 -10.1994
1 -16.3752 -2.1752 -10.1838
1 -12.263 -4.172 -12.3599
1 -10.2109 -2.0759 -12.2641
1 -10.0705 -4.1592 -10.3135
1 -12.239 -2.3038 -10.2467
1 -8.1396 -4.1059 -12.3385
1 -6.2684 -2.0839 -12.4013
1 -6.1057 -4.1349 -10.3189
1 -8.2685 -2.0259 -10.3234
1 -4.1463 -4.068 -12.3464
1 -2.1134 -2.1089 -12.2867
1 -2.0858 -4.0614 -10.2415
1 -4.0973 -1.8933 -10.2255
1 -0.05 -3.8721 -12.2524
1 1.9626 -2.0289 -12.2588
1 2.0804 -4.0748 -10.2461
1 -0.0877 -2.0467 -10.1806
1 4.0349 -4.2031 -12.3027
1 6.0966 -1.9372 -12.3333
1 6.1109 -4.1734 -10.2254
1 4.1645 -2.0733 -10.2594
1 8.0545 -4.1118 -12.3129
1 10.1455 -2.0409 -12.3116
1 10.17 -4.1199 -10.2667
1 8.1644 -2.0992 -10.3054
1 12.1198 -4.1437 -12.2783
1 14.248 -2.0937 -12.1952
1 14.2594 -4.0825 -10.2647
1 12.1725 -2.1247 -10.2058
1 16.3594 -4.228 -12.1207
1 18.4541 -2.0887 -12.1426
1 18.3828 -4.0991 -9.8477
1 16.3654 -2.2366 -10.1642
1 20.4965 -2.0989 -9.9945
1 -20.4318 -0.0285 -11.8676
1 -18.5822 1.968 -12.2195
1 -18.3658 -0.1142 -10.0048
1 -20.5179 1.9196 -9.9478
1 -16.434 -0.0725 -11.996
1 -14.3403 2.0207 -12.2262
1 -14.3782 -0.1063 -10.1559
1 -16.3831 1.9551 -10.2138
1 -12.2987 -0.1468 -12.1151
1 -10.4282 2.0784 -12.286
1 -10.1909 -0.0913 -10.2772
1 -12.3398 2.0957 -10.263
1 -8.2298 0.0259 -12.296
1 -6.2622 2.1111 -12.3943
1 -6.2798 -0.005 -10.2478
1 -8.341 1.9618 -10.2718
1 -4.2016 -0.1005 -12.2597
1 -2.0405 1.9366 -12.3288
1 -2.1166 0.0539 -10.2674
1 -4.1707 2.0399 -10.2405
1 -0.0208 0.0487 -12.3061
1 1.9383 1.9436 -12.2918
1 2.0389 -0.1201 -10.3776
1 -0.0678 1.9409 -10.2129
1 4.154 0.1512 -12.2063
1 6.0599 2.1863 -12.3553
1 6.3423 0.0578 -10.2025
1 4.0679 2.1181 -10.2066
1 8.1382 0.2225 -12.2713
1 10.3154 2.1187 -12.1733
1 10.1318 -0.0148 -10.1818
1 8.2835 2.0803 -10.0732
1 12.1089 -0.065 -12.2298
1 14.5057 1.8285 -12.1872
1 14.3055 -0.1339 -10.1889
1 12.2701 2.0268 -10.182
1 16.4246 -0.0627 -12.022
1 18.3802 2.0625 -12.0977
1 18.2848 -0.1922 -9.9186
1 16.3125 1.9569 -10.0153
1 20.3098 -0.0628 -11.9879
1 20.2521 1.945 -10.1509
1 -18.4483 3.9239 -10.1633
1 -16.4569 4.0717 -12.1493
1 -14.3812 6.1639 -12.3245
1 -14.472 3.9794 -10.2419
1 -16.4802 5.9822 -10.2468
1 -12.4048 4.0553 -12.316
1 -10.3417 6.2216 -12.3096
1 -10.2573 4.1382 -10.3086
1 -12.4268 6.1614 -10.2211
1 -8.2657 4.0596 -12.3592
1 -6.1342 5.9048 -12.3337
1 -6.2501 3.8909 -10.2083
1 -8.0707 6.0632 -10.2383
1 -4.1438 3.8118 -12.4387
1 -2.0787 5.9669 -12.2627
1 -2.164 3.9368 -10.1819
1 -4.2346 6.135 -10.3168
1 -0.1328 3.9396 -12.2603
1 2.0045 6.0043 -12.2865
1 1.9567 3.9817 -10.1864
1 -0.0375 6.0589 -10.1246
1 4.0259 3.9843 -12.42
1 6.0058 5.9693 -12.3079
1 6.2335 3.9076 -10.0937
1 4.0441 5.9823 -10.2668
1 8.1618 4.0576 -12.2973
1 10.1702 6.0529 -12.3941
1 10.3058 4.0843 -10.149
1 8.1472 6.0161 -10.1436
1 12.3677 4.1276 -12.2205
1 14.3277 6.119 -12.2399
1 14.269 3.9029 -10.3219
1 12.4336 6.0982 -10.2127
1 16.3414 3.8881 -12.1672
1 18.3261 4.0074 -10.101
1 16.3404 6.0138 -10.2426
1 -14.5653 8.0524 -10.2022
1 -12.3729 8.227 -12.4939
1 -10.2434 10.1504 -12.4257
1 -10.3926 8.2435 -10.2036
1 -12.2902 10.2061 -10.3489
1 -8.246 7.9859 -12.3618
1 -6.2844 10.1533 -12.379
1 -6.1676 8.24 -10.3011
1 -8.1603 10.2695 -10.3946
1 -4.1712 8.063 -12.4144
1 -2.1004 10.0948 -12.2536
1 -2.2035 8.1493 -10.2607
1 -4.1564 10.2494 -10.2658
1 -0.0766 8.0819 -12.3657
1 2.0005 10.2038 -12.2747
1 1.9792 8.0136 -10.4715
1 -0.0886 10.2119 -10.3638
1 4.0583 8.0976 -12.4342
1 6.1719 10.1494 -12.3085
1 6.2501 8.1175 -10.2983
1 4.0107 10.0312 -10.2507
1 8.2105 8.0425 -12.489
1 10.1473 10.0829 -12.5452
1 10.2131 7.9339 -10.1774
1 8.3267 10.1777 -10.3036
1 12.2289 8.1238 -12.3876
1 14.4814 8.1627 -10.3215
1 12.1185 10.0982 -10.2318
1 -10.2883 12.1846 -10.5163
1 -8.212 12.2642 -12.5879
1 -6.1026 14.3175 -12.4359
1 -6.2993 12.5317 -10.4729
1 -8.2951 14.4743 -10.5054
1 -4.2155 12.1496 -12.4228
1 -2.1395 14.0999 -12.4307
1 -2.0875 12.2557 -10.3391
1 -4.1593 14.1223 -10.3331
1 -0.089 12.1159 -12.4542
1 2.087 13.9833 -12.3614
1 1.9481 12.1108 -10.1596
1 -0.0019 14.1089 -10.3424
1 4.1586 12.0489 -12.2333
1 5.8482 14.1413 -12.3952
1 6.1109 12.1085 -10.2587
1 3.9613 14.1124 -10.1796
1 8.1714 12.1057 -12.3482
1 10.2363 12.2882 -10.4452
1 8.024 14.2183 -10.445
1 -6.1444 16.2457 -10.2995
1 -3.8869 16.1191 -12.3852
1 -2.2768 16.2027 -10.3569
1 0.016 16.0267 -12.3478
1 2.043 16.2477 -10.2428
1 3.6917 16.2019 -12.4618
1 5.9223 16.218 -10.4564
1 -6.0658 -18.2097 -8.345
1 -7.9892 -18.4844 -6.2534
1 -1.9918 -18.5013 -8.2485
1 -4.1476 -18.436 -6.2492
1 1.9597 -18.5383 -8.1747
1 -0.0752 -18.5112 -6.0674
1 5.8894 -18.4489 -8.3079
1 3.9896 -18.6034 -6.2311
1 7.8922 -18.4907 -6.2763
1 -10.2027 -14.4817 -8.1657
1 -10.0332 -16.4695 -6.0831
1 -12.2948 -14.346 -6.07
1 -8.1995 -16.4966 -8.1825
1 -5.9011 -14.427 -8.2804
1 -5.9344 -16.4091 -6.3204
1 -8.1125 -14.4566 -6.2268
1 -3.9103 -16.3883 -8.385
1 -1.9205 -14.2336 -8.2158
1 -2.0076 -16.4249 -6.2178
1 -4.0516 -14.3445 -6.1944
1 -0.0641 -16.4624 -8.3135
1 1.7978 -14.3435 -8.244
1 1.8746 -16.4703 -6.2546
1 -0.0625 -14.3166 -6.1785
1 3.7455 -16.5451 -8.4363
1 5.8777 -14.4003 -8.3295
1 6.0363 -16.4698 -6.275
1 4.0545 -14.5579 -6.2014
1 8.0158 -16.5625 -8.3769
1 10.0214 -14.2938 -8.0351
1 9.7813 -16.4072 -6.1751
1 7.8323 -14.3472 -6.1182
1 12.1526 -14.4117 -6.0478
1 -14.2615 -10.2644 -8.1382
1 -14.3085 -12.4029 -6.2244
1 -16.1398 -10.3941 -5.9692
1 -12.3193 -12.486 -8.2679
1 -10.2779 -10.4398 -8.4022
1 -10.227 -12.3441 -6.257
1 -12.3065 -10.3789 -6.1933
1 -8.0235 -12.4319 -8.4856
1 -6.1081 -10.3472 -8.3936
1 -6.1338 -12.3599 -6.0604
1 -8.2832 -10.238 -6.3513
1 -4.0022 -12.1949 -8.3438
1 -2.0066 -10.2209 -8.3971
1 -2.146 -12.1959 -6.1174
1 -4.1346 -10.1823 -6.2553
1 -0.1528 -12.1836 -8.0653
1 1.8776 -10.3524 -8.2018
1 2.127 -12.2686 -6.1493
1 -0.1842 -10.1712 -6.3023
1 4.0786 -12.3261 -8.2697
1 6.0011 -10.1623 -8.1755
1 5.9125 -12.1776 -6.1646
1 3.9164 -10.123 -6.2985
1 7.9915 -12.248 -8.3591
1 10.1504 -10.3575 -8.2128
1 10.0363 -12.3307 -6.1877
1 8.0441 -10.266 -6.2384
1 12.2291 -12.3883 -8.2579
1 14.3487 -10.2883 -8.1815
1 14.1123 -12.3745 -6.0557
1 12.1602 -10.2926 -6.2176
1 16.2228 -10.2655 -5.8398
1 -18.3828 -6.2044 -8.0702
1 -18.086 -8.3258 -6.0384
1 -16.2488 -8.2775 -8.0352
1 -14.1662 -6.2991 -8.2892
1 -14.1342 -8.2795 -6.2342
1 -16.1584 -6.2957 -6.1577
1 -12.2514 -8.3621 -8.277
1 -10.1618 -6.2717 -8.3381
1 -10.2422 -8.1853 -6.1552
1 -12.2687 -6.1674 -6.0969
1 -8.1546 -8.3006 -8.3423
1 -6.0992 -6.3085 -8.2526
1 -6.2442 -8.3037 -6.2563
1 -8.1926 -6.1773 -6.1416
1 -4.1234 -8.3213 -8.3412
1 -2.1701 -6.1511 -8.301
1 -2.1427 -8.2204 -6.2681
1 -4.1992 -6.2827 -6.3551
1 -0.0718 -8.1402 -8.436
1 2.0711 -6.0322 -8.2906
1 1.9681 -8.1874 -6.1347
1 -0.0823 -6.265 -6.2663
1 3.8925 -8.1583 -8.2025
1 6.0749 -6.1571 -8.1791
1 6.1502 -8.188 -6.2698
1 3.951 -6.2174 -6.3018
1 8.2401 -8.2805 -8.326
1 10.0464 -6.1949 -8.1363
1 10.2168 -8.2064 -6.2555
1 8.1321 -6.1514 -6.2298
1 12.229 -8.2273 -8.3218
1 14.2723 -6.2159 -8.3208
1 14.2326 -8.1802 -6.2773
1 12.3144 -6.1001 -6.1978
1 16.4377 -8.3168 -8.0683
1 18.3028 -6.2127 -8.0907
1 18.2096 -8.3729 -5.8725
1 16.3055 -6.2141 -6.0735
1 -18.3372 -2.2177 -8.1833
1 -18.3923 -4.2175 -6.1715
1 -20.2396 -2.1965 -6.1449
1 -16.3775 -4.259 -8.1622
1 -14.2537 -2.2957 -8.2958
1 -14.302 -4.1561 -6.0767
1 -16.2671 -2.0204 -6.314
1 -12.1619 -4.2031 -8.1434
1 -10.2771 -2.0285 -8.2007
1 -10.1868 -4.0587 -6.063
1 -12.3353 -2.0679 -6.2051
1 -8.193 -4.1577 -8.1854
1 -6.28 -2.1778 -8.2452
1 -6.2673 -4.2389 -6.2577
1 -8.1873 -2.0647 -6.2009
1 -4.1905 -4.1238 -8.2706
1 -2.2791 -2.1444 -8.1321
1 -2.1255 -4.0823 -6.1084
1 -4.2217 -2.206 -6.2468
1 -0.0375 -4.0039 -8.2329
1 2.1281 -2.0941 -8.196
1 1.997 -4.0532 -6.181
1 -0.0024 -1.9838 -6.2109
1 4.1138 -4.0349 -8.1536
1 6.1987 -2.1403 -8.356
1 6.1273 -4.1871 -6.1846
1 4.2299 -2.1463 -6.1892
1 8.1226 -4.1069 -8.2225
1 10.0887 -2.0949 -8.2432
1 10.2415 -4.0927 -6.1875
1 8.0697 -2.0582 -6.0416
1 12.2251 -4.0933 -8.274
1 14.2083 -2.0837 -8.0589
1 14.3379 -4.0623 -5.9306
1 12.307 -2.1769 -6.0648
1 16.303 -4.1899 -7.9624
1 18.2552 -2.0978 -7.9648
1 18.4364 -4.3079 -6.1287
1 16.2279 -2.1572 -6.0235
1 20.4632 -2.0493 -6.1908
1 -20.7084 -0.2142 -8.1201
1 -18.3932 1.9285 -8.0705
1 -18.4264 -0.1452 -6.0984
1 -20.5622 1.8207 -6.0268
1 -16.3483 0.0212 -8.0538
1 -14.2936 1.966 -8.2835
1 -14.2467 -0.0787 -6.1271
1 -16.3212 2.0709 -6.0089
1 -12.2364 -0.1779 -8.368
1 -10.3106 2.0805 -8.0896
1 -10.3136 0.0781 -6.1985
1 -12.2729 1.937 -6.0493
1 -8.3186 0.0403 -8.2458
1 -6.2806 2.0119 -8.2213
1 -6.056 0.008 -6.2086
1 -8.246 2.0688 -6.1046
1 -4.2425 0.0846 -8.1495
1 -2.1747 2.0078 -8.1329
1 -2.109 -0.0683 -6.1616
1 -4.1696 2.0788 -6.14
1 0.0159 -0.0923 -8.1834
1 1.91 1.9841 -8.2736
1 2.0289 -0.1462 -6.2411
1 -0.0566 1.8606 -6.2136
1 4.1476 -0.0453 -8.3285
1 6.137 2.0393 -8.1551
1 6.0028 -0.0185 -6.1388
1 4.0004 1.9797 -6.2414
1 8.1934 -0.0101 -8.2404
1 10.234 2.0267 -8.2078
1 10.2004 0.0116 -6.197
1 8.1574 2.0213 -6.1138
1 12.2048 -0.1672 -8.2404
1 14.2462 1.7826 -8.148
1 14.1949 -0.0468 -5.9969
1 12.289 2.0744 -6.1161
1 16.2763 -0.0363 -7.948
1 18.4666 2.0787 -8.1023
1 18.536 0.002 -6.1725
1 16.4679 2.0067 -6.1392
1 20.6097 -0.1147 -8.187
1 20.4739 1.8688 -6.115
1 -18.5114 6.1157 -8.0893
1 -18.5593 4.0769 -6.1131
1 -16.4604 4.0012 -8.1074
1 -14.4059 5.9112 -8.1643
1 -14.3349 3.882 -6.0443
1 -16.4899 6.0265 -6.2068
1 -12.2986 4.1073 -8.1621
1 -10.3119 6.0925 -8.1753
1 -10.2562 4.0734 -6.1401
1 -12.4421 6.0449 -6.0439
1 -8.1417 4.0389 -8.2622
1 -6.0488 6.2143 -8.2201
1 -6.1928 4.0978 -6.1803
1 -8.2617 6.1071 -6.2424
1 -4.2416 3.9466 -8.1666
1 -2.0294 6.1196 -8.3606
1 -2.1231 4.0472 -6.1175
1 -4.159 6.0547 -6.2641
1 -0.0312 4.0341 -8.048
1 2.0184 5.9897 -8.2953
1 1.9866 3.8535 -6.102
1 -0.0331 6.1062 -6.2642
1 4.027 4.0496 -8.0322
1 6.0677 6.106 -8.2178
1 6.1681 3.9954 -6.1148
1 3.9394 6.0727 -6.2262
1 8.1692 4.1287 -8.0477
1 10.2904 6.0931 -8.0052
1 10.2421 4.0815 -6.1412
1 8.0875 6.1668 -6.2122
1 12.3364 4.067 -8.1964
1 14.3918 6.0812 -8.1278
1 14.4447 3.9374 -6.0363
1 12.463 6.0473 -6.1049
1 16.3225 3.8996 -8.1581
1 18.2066 6.0408 -8.1209
1 18.3689 3.9962 -6.0727
1 16.3881 5.986 -6.0974
1 -18.3762 8.1599 -6.2432
1 -16.3784 7.9453 -8.1683
1 -14.5219 10.1324 -8.3085
1 -14.4306 8.1855 -6.2393
1 -16.3381 10.0558 -6.1424
1 -12.4482 8.1456 -8.1431
1 -10.2422 10.1459 -8.292
1 -10.3664 8.1072 -6.3014
1 -12.3627 10.3123 -6.2745
1 -8.2779 8.128 -8.2484
1 -6.154 10.1729 -8.1913
1 -6.0672 8.1188 -6.1711
1 -8.1488 10.0921 -6.1731
1 -4.1647 8.1605 -8.1966
1 -2.2059 10.1066 -8.3282
1 -2.2062 8.3128 -6.1381
1 -4.1923 10.1789 -6.1264
1 -0.0742 8.1145 -8.2808
1 2.0751 10.0211 -8.276
1 2.024 8.1937 -6.1637
1 0.007 10.1523 -6.2897
1 3.9717 8.0774 -8.2641
1 6.1213 10.182 -8.1338
1 6.109 8.0671 -6.184
1 4.0951 10.1021 -6.1793
1 8.2081 8.1836 -8.1187
1 10.2833 10.3184 -8.1982
1 10.3911 8.1125 -6.1548
1 8.1592 10.1128 -6.1349
1 12.4002 8.029 -8.2506
1 14.3602 10.249 -8.0641
1 14.4184 8.1801 -6.0559
1 12.3745 10.2926 -6.2361
1 16.1485 8.1112 -8.1834
1 18.1636 8.1452 -6.1563
1 16.3185 10.1775 -5.8784
1 -14.2236 12.246 -6.2294
1 -12.267 12.3366 -8.2306
1 -10.2461 14.3463 -8.482
1 -10.2651 12.3521 -6.2245
1 -12.1993 14.3141 -6.146
1 -8.3172 12.3355 -8.4222
1 -6.2225 14.3757 -8.2728
1 -6.2238 12.1916 -6.0352
1 -8.2132 14.3716 -6.1449
1 -4.2386 12.2252 -8.2473
1 -2.0762 14.2913 -8.3409
1 -2.131 12.1961 -6.1332
1 -4.2512 14.2854 -6.2785
1 -0.0636 12.1728 -8.13
1 1.9253 14.3204 -8.2833
1 1.9453 12.2709 -6.2017
1 -0.0465 14.3918 -6.3609
1 4.1002 12.1049 -8.2002
1 5.9772 14.2834 -8.2435
1 6.2383 12.3002 -6.2742
1 4.0082 14.3428 -6.2667
1 8.0997 12.152 -8.4055
1 10.0944 14.319 -8.2627
1 10.079 12.2772 -6.1398
1 8.2046 14.3156 -6.2334
1 12.379 12.3226 -8.2969
1 14.4282 12.3066 -6.1055
1 12.0609 14.2603 -6.1917
1 -10.2298 16.365 -6.0989
1 -8.2037 16.2963 -8.2557
1 -5.9863 18.3385 -8.3974
1 -6.2169 16.3549 -6.1662
1 -8.0174 18.3206 -6.1411
1 -4.0384 16.1638 -8.238
1 -2.0236 18.56 -8.1059
1 -2.0099 16.386 -6.2588
1 -4.0727 18.5539 -6.3487
1 -0.0723 16.4807 -8.3579
1 1.9879 18.4697 -8.0061
1 2.132 16.4088 -6.181
1 -0.1147 18.4443 -6.139
1 4.0401 16.3428 -8.3655
1 5.9467 18.3702 -8.4437
1 5.9781 16.3527 -6.2939
1 4.1096 18.5775 -6.3755
1 7.9759 16.2092 -8.4007
1 10.0151 16.3432 -6.2376
1 7.9024 18.2914 -6.382
1 -9.9021 -18.5474 -4.1029
1 -9.9915 -20.5641 -1.9139
1 -11.9327 -18.5761 -2.2414
1 -6.0045 -18.4339 -4.0719
1 -6.013 -20.3978 -1.9091
1 -7.9694 -18.4785 -1.9192
1 -2.2508 -18.5742 -4.1593
1 -1.8537 -20.3924 -1.9543
1 -3.9352 -18.6064 -1.9468
1 1.9481 -18.5244 -4.1726
1 1.7736 -20.4185 -1.9464
1 -0.1056 -18.3447 -1.9769
1 5.9435 -18.6495 -4.1298
1 5.8727 -20.7085 -1.8834
1 3.9989 -18.6761 -2.1943
1 9.8405 -18.45 -4.0386
1 9.6473 -20.557 -2.0562
1 7.7751 -18.4633 -2.0947
1 11.9472 -18.6967 -2.0914
1 -14.2497 -14.4321 -3.9679
1 -14.1063 -16.6157 -2.0928
1 -12.079 -16.4222 -3.9901
1 -10.0984 -14.4728 -4.1417
1 -10.0612 -16.5317 -2.0587
1 -12.0923 -14.4192 -2.0784
1 -8.0168 -16.4689 -4.1532
1 -6.0828 -14.3351 -4.1052
1 -5.9519 -16.4431 -2.0351
1 -8.0734 -14.3064 -2.1623
1 -4.0617 -16.3892 -4.0897
1 -2.0006 -14.3683 -4.1742
1 -2.0892 -16.4366 -2.1239
1 -4.0962 -14.215 -2.0534
1 0.0079 -16.541 -4.0718
1 2.0354 -14.4491 -4.0988
1 1.9963 -16.4427 -2.1034
1 -0.135 -14.4052 -2.1512
1 3.8295 -16.5253 -4.1024
1 5.9666 -14.2586 -4.0273
1 5.822 -16.5247 -2.1399
1 3.9049 -14.4128 -1.9992
1 8.0044 -16.4317 -4.0849
1 9.9549 -14.418 -4.186
1 10.0618 -16.5203 -2.0678
1 8.0016 -14.49 -2.0836
1 11.9539 -16.6224 -4.1156
1 14.0698 -14.5639 -4.0855
1 13.911 -16.7652 -2.2683
1 11.927 -14.4946 -2.1801
1 -16.1231 -12.3116 -3.9959
1 -14.1564 -10.2435 -4.0196
1 -14.1693 -12.4151 -2.1236
1 -16.2431 -10.4519 -2.053
1 -12.1666 -12.3911 -4.1362
1 -10.3368 -10.1577 -4.1317
1 -10.1539 -12.332 -2.2506
1 -12.1564 -10.2931 -2.1418
1 -8.1204 -12.3713 -4.2392
1 -6.2109 -10.3241 -4.1827
1 -6.1558 -12.2507 -2.1129
1 -8.247 -10.2583 -2.2185
1 -4.0962 -12.2606 -4.1754
1 -2.1194 -10.328 -4.059
1 -2.0946 -12.362 -2.0247
1 -4.1624 -10.2243 -2.1864
1 -0.0751 -12.2449 -4.0811
1 1.9766 -10.2886 -4.1708
1 1.9629 -12.2864 -2.0518
1 -0.0633 -10.1065 -2.1408
1 3.9938 -12.3331 -4.0868
1 5.9663 -10.1849 -4.1819
1 5.9909 -12.211 -2.1353
1 3.9555 -10.291 -2.1491
1 7.9093 -12.3506 -4.2007
1 10.1582 -10.2168 -4.094
1 9.9458 -12.4052 -2.2398
1 8.0462 -10.224 -2.2248
1 12.0752 -12.2925 -4.1349
1 14.0763 -10.193 -4.1162
1 13.9236 -12.483 -2.1467
1 12.0527 -10.2685 -2.1043
1 15.893 -12.3356 -3.9149
1 16.1492 -10.154 -2.1275
1 -18.3482 -6.3346 -4.2189
1 -18.3933 -8.2034 -2.1425
1 -16.1897 -8.3039 -4.0521
1 -14.2346 -6.236 -4.1499
1 -14.2499 -8.2973 -1.8731
1 -16.3782 -6.3159 -2.1036
1 -12.2261 -8.0873 -4.0135
1 -10.2479 -6.1133 -4.0837
1 -10.1778 -8.1539 -2.1396
1 -12.1629 -5.9304 -2.0713
1 -8.0963 -8.1829 -4.2239
1 -6.1099 -6.2633 -4.2821
1 -6.1391 -8.2989 -2.1646
1 -8.1104 -6.2386 -2.1874
1 -4.098 -8.2497 -4.0337
1 -2.2466 -6.1639 -4.2005
1 -2.1224 -8.1103 -1.9982
1 -4.0979 -6.0667 -2.0215
1 -0.1066 -8.2485 -4.1879
1 1.9768 -6.168 -4.2404
1 1.9629 -8.2607 -2.1437
1 -0.0442 -6.1982 -2.1782
1 3.9193 -8.1336 -4.2711
1 6.1246 -6.2257 -4.1987
1 6.0214 -8.2081 -2.1251
1 3.9736 -6.1685 -2.1008
1 8.0078 -8.218 -4.0443
1 10.0618 -6.1232 -4.2407
1 10.0775 -8.1723 -2.0168
1 8.1477 -6.1213 -2.139
1 12.2273 -8.1418 -4.251
1 14.3478 -6.2404 -4.0858
1 14.1315 -8.195 -2.0431
1 12.1161 -6.1349 -2.1753
1 16.2483 -8.217 -4.0506
1 18.4657 -6.2784 -4.0696
1 18.2777 -8.1397 -1.9436
1 16.2265 -6.2916 -2.0095
1 -18.3662 -2.152 -4.1251
1 -18.3599 -4.3157 -2.0316
1 -20.2349 -2.1455 -1.9707
1 -16.4627 -4.2801 -4.1612
1 -14.5149 -2.1029 -4.0966
1 -14.4315 -4.132 -2.0463
1 -16.4832 -2.1562 -1.9163
1 -12.2475 -4.1034 -4.1156
1 -10.2731 -2.0326 -4.1352
1 -10.1812 -4.0094 -2.0608
1 -12.3821 -2.0654 -1.987
1 -8.179 -4.0848 -4.1493
1 -6.0655 -2.0792 -4.1616
1 -6.1517 -4.2679 -2.1035
1 -8.1002 -2.0599 -2.0823
1 -4.0919 -4.1576 -4.1835
1 -2.1067 -2.0065 -4.1971
1 -2.0114 -4.1073 -2.2148
1 -4.1084 -2.1169 -2.0935
1 0.0358 -3.9973 -4.2101
1 2.0417 -1.8779 -4.1186
1 1.9429 -4.103 -1.9944
1 -0.0512 -2.043 -2.0957
1 3.9931 -4.1117 -4.1592
1 5.934 -2.1417 -4.0269
1 5.9666 -4.2742 -2.0314
1 4.014 -2.1251 -2.0127
1 8.0146 -4.0612 -4.1985
1 10.1527 -1.9295 -4.0328
1 10.192 -4.0301 -2.13
1 8.0847 -2.1464 -2.1771
1 12.2631 -4.1362 -4.0271
1 14.2885 -2.0251 -3.9314
1 14.2933 -4.194 -1.9659
1 12.2583 -2.1101 -1.9978
1 16.4124 -4.243 -4.1332
1 18.3836 -2.1314 -4.2045
1 18.2109 -4.2057 -1.9936
1 16.2323 -2.1825 -1.9517
1 20.172 -2.2472 -2.0347
1 -20.2603 -0.1653 -4.1366
1 -18.4039 1.9404 -4.2258
1 -18.2053 -0.0211 -2.112
1 -20.3776 2.0372 -2.2717
1 -16.3427 -0.08 -4.2375
1 -14.3054 1.966 -3.9632
1 -14.5163 -0.0859 -2.0224
1 -16.494 2.0771 -2.0799
1 -12.2439 -0.0245 -3.9941
1 -10.2426 1.9893 -4.1036
1 -10.095 -0.0529 -1.9669
1 -12.2777 1.8994 -1.9525
1 -8.2539 0.0437 -4.234
1 -6.1155 2.0676 -3.9911
1 -5.9893 -0.0403 -2.1387
1 -8.1877 1.978 -2.0539
1 -3.995 0.023 -4.1295
1 -2.0025 1.957 -4.2066
1 -2.0966 -0.0713 -1.9558
1 -4.1226 2.068 -2.0726
1 0.0262 -0.0419 -4.1583
1 2.0049 1.8031 -4.0841
1 1.9986 -0.1027 -1.9723
1 -0.0719 1.806 -2.1311
1 3.9408 -0.0533 -4.0838
1 5.8974 2.0441 -4.041
1 5.919 -0.0158 -1.9805
1 3.9541 2.0547 -2.1111
1 8.0935 0.0757 -4.2059
1 10.2107 2.0037 -3.9286
1 9.9774 -0.0356 -2.0324
1 7.8948 2.1114 -2.0311
1 12.2478 0.0317 -3.8971
1 14.2388 2.0118 -3.8956
1 14.3479 -0.0216 -1.9387
1 12.1122 2.1661 -1.9779
1 16.3084 -0.091 -4.0318
1 18.5209 1.8835 -4.0688
1 18.1927 -0.1805 -1.9972
1 16.3505 1.925 -1.9902
1 20.3725 -0.0865 -4.0707
1 20.1164 2.0697 -1.9282
1 -18.6478 6.2038 -4.1398
1 -18.6239 4.1032 -2.0126
1 -16.4271 4.1118 -4.1633
1 -14.4223 6.2206 -4.2182
1 -14.4479 4.1476 -2.1241
1 -16.5415 6.1558 -2.1292
1 -12.3567 4.0477 -4.1553
1 -10.192 6.2227 -4.0753
1 -10.2367 4.1019 -2.0661
1 -12.396 6.2649 -2.1876
1 -8.1589 4.053 -4.0891
1 -6.2479 6.1228 -4.1636
1 -6.2009 4.0742 -2.2049
1 -8.1652 6.1727 -2.1227
1 -4.21 4.1901 -4.1869
1 -2.0263 6.0511 -4.2992
1 -1.9516 4.023 -2.2013
1 -4.0313 6.0113 -2.1167
1 0.0222 3.9319 -4.1699
1 2.0608 6.0682 -4.1302
1 1.9605 3.931 -2.1894
1 -0.0051 6.007 -1.9954
1 4.0044 4.091 -4.3161
1 6.162 6.1047 -4.1458
1 6.0613 4.154 -2.2157
1 3.9803 5.9978 -2.1758
1 8.0968 4.0319 -4.0396
1 10.2054 6.0267 -4.1622
1 10.0357 4.1684 -2.0598
1 8.1876 6.0945 -2.2066
1 12.2518 4.1391 -4.0726
1 14.3674 5.9726 -4.1558
1 14.3652 4.0708 -1.9625
1 12.2362 6.1319 -2.0857
1 16.3481 3.8929 -3.9058
1 18.3196 6.0381 -4.0413
1 18.338 4.047 -2.0281
1 16.339 6.2046 -2.0153
1 -18.5216 8.072 -2.0668
1 -16.5594 8.057 -4.1845
1 -14.2475 10.1324 -4.1452
1 -14.4496 8.2206 -2.0583
1 -16.4645 10.1331 -2.1583
1 -12.3223 8.2101 -4.2201
1 -10.3319 10.1262 -4.211
1 -10.1368 8.266 -2.0844
1 -12.2002 10.19 -2.0389
1 -8.0906 8.1861 -4.0708
1 -6.098 10.219 -4.084
1 -6.0513 8.1837 -2.0881
1 -8.2102 10.1887 -2.188
1 -4.1439 8.0843 -3.9598
1 -2.0748 10.1615 -4.0872
1 -1.9703 7.9931 -2.0944
1 -3.9727 10.2247 -2.0871
1 0.0041 8.1472 -4.2344
1 1.9561 10.251 -4.1588
1 1.9941 8.1757 -2.1113
1 0.0333 10.242 -2.1935
1 4.0438 7.9594 -4.1142
1 6.1351 10.1164 -4.1707
1 6.1053 8.1129 -2.1284
1 4.1128 10.2916 -2.1914
1 8.1384 8.0258 -4.1676
1 10.201 10.2391 -4.1423
1 10.2171 8.2217 -2.1519
1 8.1073 10.1528 -2.2093
1 12.2581 8.159 -4.1927
1 14.1665 10.2343 -4.085
1 14.1725 8.221 -2.0339
1 12.157 10.2117 -2.0061
1 16.3923 8.0136 -4.0947
1 18.4028 8.0693 -2.0575
1 16.2581 10.0818 -2.1535
1 -16.1912 12.1234 -4.139
1 -14.2871 14.2446 -3.9992
1 -14.158 12.2167 -2.0468
1 -12.2379 12.2109 -4.0952
1 -10.151 14.2667 -3.9478
1 -10.1205 12.2636 -2.0265
1 -12.2015 14.2888 -1.8771
1 -8.2425 12.2651 -4.1503
1 -6.1985 14.3354 -4.0897
1 -6.1032 12.1817 -2.061
1 -8.1341 14.2962 -2.0344
1 -3.9746 12.2798 -4.1083
1 -2.1791 14.3786 -4.2399
1 -1.9389 12.2256 -1.9735
1 -4.0912 14.3242 -2.1377
1 -0.0084 12.303 -4.1222
1 2.0372 14.388 -4.2846
1 1.9919 12.3033 -2.0852
1 -0.116 14.3133 -2.2491
1 4.1566 12.2861 -4.2697
1 6.072 14.3466 -4.1904
1 6.1558 12.1723 -2.096
1 3.8535 14.3007 -2.1414
1 8.3 12.3077 -4.1071
1 10.0902 14.3518 -4.1063
1 10.132 12.2191 -2.0487
1 7.9598 14.34 -1.9602
1 12.1444 12.2864 -4.2462
1 14.2261 14.3548 -4.1535
1 14.057 12.1649 -2.0644
1 12.0142 14.2988 -1.9354
1 16.2225 12.2032 -4.0337
1 -14.1414 16.3609 -2.1167
1 -12.1895 16.2223 -3.8368
1 -9.9657 18.3961 -4.0393
1 -10.111 16.387 -1.901
1 -12.015 18.5306 -2.1186
1 -8.2009 16.3088 -4.0293
1 -6.1339 18.3815 -4.0857
1 -6.1778 16.3176 -2.0907
1 -8.1063 18.3883 -1.9767
1 -4.2333 16.442 -4.1906
1 -2.2294 18.4792 -4.2124
1 -2.0662 16.4248 -2.2409
1 -4.2529 18.3639 -2.0194
1 -0.0063 16.3588 -4.0885
1 2.1251 18.506 -4.3133
1 2.1704 16.5834 -2.1938
1 -0.02 18.5563 -2.1915
1 4.0876 16.444 -4.1699
1 6.1535 18.3196 -4.1346
1 5.9686 16.381 -2.1638
1 4.1391 18.6854 -2.1816
1 7.9642 16.2534 -4.1488
1 9.9009 18.3127 -4.1035
1 10.0053 16.2985 -2.091
1 8.0811 18.357 -2.0204
1 12.0751 16.2064 -4.1639
1 14.0309 16.4032 -2.0607
1 11.8611 18.3208 -2.0123
1 -9.924 20.523 -1.8042
1 -6.1174 20.3992 -1.9054
1 -2.1065 20.3705 -2.1206
1 2.0251 20.3139 -2.0482
1 6.231 20.5254 -1.7645
1 9.9145 20.4098 -1.9682
1 -13.738 -18.6911 -0.0199
1 -11.9246 -20.6827 0.1245
1 -10.0832 -18.4484 -0.0743
1 -9.9901 -20.5954 1.9331
1 -11.8948 -18.5249 2.0487
1 -8.0187 -20.7581 -0.0292
1 -5.9088 -18.5852 0.1409
1 -6.0897 -20.5936 2.0238
1 -8.094 -18.5227 2.0275
1 -3.9079 -20.6816 0.1752
1 -2.1082 -18.3515 0.187
1 -2.0101 -20.3232 2.163
1 -4.0662 -18.5379 2.1821
1 -0.1093 -20.4382 0.1945
1 1.9156 -18.4771 0.0319
1 1.9481 -20.4361 2.1943
1 -0.0829 -18.3479 2.2406
1 3.85 -20.5996 0.0931
1 5.8346 -18.5508 -0.0777
1 5.9424 -20.4265 1.9635
1 3.973 -18.4935 2.094
1 7.9919 -20.7696 -0.0239
1 9.8581 -18.5692 -0.1834
1 9.8481 -20.3995 1.8205
1 8.0402 -18.4985 2.1381
1 11.7249 -20.644 -0.0728
1 13.8932 -18.6944 -0.2269