LAMMPS Description

     32000  atoms
     0  bonds
     0  angles
     0  dihedrals
     0  impropers

     6  atom types
     4  bond types
     4  angle types
     4  dihedral types

  -42 42 xlo xhi
  -42 42 ylo yhi
  -42 42 zlo zhi

Masses

		1	107.8682
		2	14.02658
		3	15.03452
		4		32.065
		5		15.9994
		6		1.00794

Atoms

1 1 1 0. -40.85 -40.85 -40.85
2 1 1 0. -40.85 -38.8075 -38.8075
3 1 1 0. -38.8075 -40.85 -38.8075
4 1 1 0. -38.8075 -38.8075 -40.85
5 2 1 0. -36.765 -40.85 -40.85
6 2 1 0. -36.765 -38.8075 -38.8075
7 2 1 0. -34.7225 -40.85 -38.8075
8 2 1 0. -34.7225 -38.8075 -40.85
9 3 1 0. -32.68 -40.85 -40.85
10 3 1 0. -32.68 -38.8075 -38.8075
11 3 1 0. -30.6375 -40.85 -38.8075
12 3 1 0. -30.6375 -38.8075 -40.85
13 4 1 0. -28.595 -40.85 -40.85
14 4 1 0. -28.595 -38.8075 -38.8075
15 4 1 0. -26.5525 -40.85 -38.8075
16 4 1 0. -26.5525 -38.8075 -40.85
17 5 1 0. -24.51 -40.85 -40.85
18 5 1 0. -24.51 -38.8075 -38.8075
19 5 1 0. -22.4675 -40.85 -38.8075
20 5 1 0. -22.4675 -38.8075 -40.85
21 6 1 0. -20.425 -40.85 -40.85
22 6 1 0. -20.425 -38.8075 -38.8075
23 6 1 0. -18.3825 -40.85 -38.8075
24 6 1 0. -18.3825 -38.8075 -40.85
25 7 1 0. -16.34 -40.85 -40.85
26 7 1 0. -16.34 -38.8075 -38.8075
27 7 1 0. -14.2975 -40.85 -38.8075
28 7 1 0. -14.2975 -38.8075 -40.85
29 8 1 0. -12.255 -40.85 -40.85
30 8 1 0. -12.255 -38.8075 -38.8075
31 8 1 0. -10.2125 -40.85 -38.8075
32 8 1 0. -10.2125 -38.8075 -40.85
33 9 1 0. -8.17 -40.85 -40.85
34 9 1 0. -8.17 -38.8075 -38.8075
35 9 1 0. -6.1275 -40.85 -38.8075
36 9 1 0. -6.1275 -38.8075 -40.85
37 10 1 0. -4.085 -40.85 -40.85
38 10 1 0. -4.085 -38.8075 -38.8075
39 10 1 0. -2.0425 -40.85 -38.8075
40 10 1 0. -2.0425 -38.8075 -40.85
41 11 1 0. 0.0 -40.85 -40.85
42 11 1 0. 0.0 -38.8075 -38.8075
43 11 1 0. 2.0425 -40.85 -38.8075
44 11 1 0. 2.0425 -38.8075 -40.85
45 12 1 0. 4.085 -40.85 -40.85
46 12 1 0. 4.085 -38.8075 -38.8075
47 12 1 0. 6.1275 -40.85 -38.8075
48 12 1 0. 6.1275 -38.8075 -40.85
49 13 1 0. 8.17 -40.85 -40.85
50 13 1 0. 8.17 -38.8075 -38.8075
51 13 1 0. 10.2125 -40.85 -38.8075
52 13 1 0. 10.2125 -38.8075 -40.85
53 14 1 0. 12.255 -40.85 -40.85
54 14 1 0. 12.255 -38.8075 -38.8075
55 14 1 0. 14.2975 -40.85 -38.8075
56 14 1 0. 14.2975 -38.8075 -40.85
57 15 1 0. 16.34 -40.85 -40.85
58 15 1 0. 16.34 -38.8075 -38.8075
59 15 1 0. 18.3825 -40.85 -38.8075
60 15 1 0. 18.3825 -38.8075 -40.85
61 16 1 0. 20.425 -40.85 -40.85
62 16 1 0. 20.425 -38.8075 -38.8075
63 16 1 0. 22.4675 -40.85 -38.8075
64 16 1 0. 22.4675 -38.8075 -40.85
65 17 1 0. 24.51 -40.85 -40.85
66 17 1 0. 24.51 -38.8075 -38.8075
67 17 1 0. 26.5525 -40.85 -38.8075
68 17 1 0. 26.5525 -38.8075 -40.85
69 18 1 0. 28.595 -40.85 -40.85
70 18 1 0. 28.595 -38.8075 -38.8075
71 18 1 0. 30.6375 -40.85 -38.8075
72 18 1 0. 30.6375 -38.8075 -40.85
73 19 1 0. 32.68 -40.85 -40.85
74 19 1 0. 32.68 -38.8075 -38.8075
75 19 1 0. 34.7225 -40.85 -38.8075
76 19 1 0. 34.7225 -38.8075 -40.85
77 20 1 0. 36.765 -40.85 -40.85
78 20 1 0. 36.765 -38.8075 -38.8075
79 20 1 0. 38.8075 -40.85 -38.8075
80 20 1 0. 38.8075 -38.8075 -40.85
81 21 1 0. -40.85 -36.765 -40.85
82 21 1 0. -40.85 -34.7225 -38.8075
83 21 1 0. -38.8075 -36.765 -38.8075
84 21 1 0. -38.8075 -34.7225 -40.85
85 22 1 0. -36.765 -36.765 -40.85
86 22 1 0. -36.765 -34.7225 -38.8075
87 22 1 0. -34.7225 -36.765 -38.8075
88 22 1 0. -34.7225 -34.7225 -40.85
89 23 1 0. -32.68 -36.765 -40.85
90 23 1 0. -32.68 -34.7225 -38.8075
91 23 1 0. -30.6375 -36.765 -38.8075
92 23 1 0. -30.6375 -34.7225 -40.85
93 24 1 0. -28.595 -36.765 -40.85
94 24 1 0. -28.595 -34.7225 -38.8075
95 24 1 0. -26.5525 -36.765 -38.8075
96 24 1 0. -26.5525 -34.7225 -40.85
97 25 1 0. -24.51 -36.765 -40.85
98 25 1 0. -24.51 -34.7225 -38.8075
99 25 1 0. -22.4675 -36.765 -38.8075
100 25 1 0. -22.4675 -34.7225 -40.85
101 26 1 0. -20.425 -36.765 -40.85
102 26 1 0. -20.425 -34.7225 -38.8075
103 26 1 0. -18.3825 -36.765 -38.8075
104 26 1 0. -18.3825 -34.7225 -40.85
105 27 1 0. -16.34 -36.765 -40.85
106 27 1 0. -16.34 -34.7225 -38.8075
107 27 1 0. -14.2975 -36.765 -38.8075
108 27 1 0. -14.2975 -34.7225 -40.85
109 28 1 0. -12.255 -36.765 -40.85
110 28 1 0. -12.255 -34.7225 -38.8075
111 28 1 0. -10.2125 -36.765 -38.8075
112 28 1 0. -10.2125 -34.7225 -40.85
113 29 1 0. -8.17 -36.765 -40.85
114 29 1 0. -8.17 -34.7225 -38.8075
115 29 1 0. -6.1275 -36.765 -38.8075
116 29 1 0. -6.1275 -34.7225 -40.85
117 30 1 0. -4.085 -36.765 -40.85
118 30 1 0. -4.085 -34.7225 -38.8075
119 30 1 0. -2.0425 -36.765 -38.8075
120 30 1 0. -2.0425 -34.7225 -40.85
121 31 1 0. 0.0 -36.765 -40.85
122 31 1 0. 0.0 -34.7225 -38.8075
123 31 1 0. 2.0425 -36.765 -38.8075
124 31 1 0. 2.0425 -34.7225 -40.85
125 32 1 0. 4.085 -36.765 -40.85
126 32 1 0. 4.085 -34.7225 -38.8075
127 32 1 0. 6.1275 -36.765 -38.8075
128 32 1 0. 6.1275 -34.7225 -40.85
129 33 1 0. 8.17 -36.765 -40.85
130 33 1 0. 8.17 -34.7225 -38.8075
131 33 1 0. 10.2125 -36.765 -38.8075
132 33 1 0. 10.2125 -34.7225 -40.85
133 34 1 0. 12.255 -36.765 -40.85
134 34 1 0. 12.255 -34.7225 -38.8075
135 34 1 0. 14.2975 -36.765 -38.8075
136 34 1 0. 14.2975 -34.7225 -40.85
137 35 1 0. 16.34 -36.765 -40.85
138 35 1 0. 16.34 -34.7225 -38.8075
139 35 1 0. 18.3825 -36.765 -38.8075
140 35 1 0. 18.3825 -34.7225 -40.85
141 36 1 0. 20.425 -36.765 -40.85
142 36 1 0. 20.425 -34.7225 -38.8075
143 36 1 0. 22.4675 -36.765 -38.8075
144 36 1 0. 22.4675 -34.7225 -40.85
145 37 1 0. 24.51 -36.765 -40.85
146 37 1 0. 24.51 -34.7225 -38.8075
147 37 1 0. 26.5525 -36.765 -38.8075
148 37 1 0. 26.5525 -34.7225 -40.85
149 38 1 0. 28.595 -36.765 -40.85
150 38 1 0. 28.595 -34.7225 -38.8075
151 38 1 0. 30.6375 -36.765 -38.8075
152 38 1 0. 30.6375 -34.7225 -40.85
153 39 1 0. 32.68 -36.765 -40.85
154 39 1 0. 32.68 -34.7225 -38.8075
155 39 1 0. 34.7225 -36.765 -38.8075
156 39 1 0. 34.7225 -34.7225 -40.85
157 40 1 0. 36.765 -36.765 -40.85
158 40 1 0. 36.765 -34.7225 -38.8075
159 40 1 0. 38.8075 -36.765 -38.8075
160 40 1 0. 38.8075 -34.7225 -40.85
161 41 1 0. -40.85 -32.68 -40.85
162 41 1 0. -40.85 -30.6375 -38.8075
163 41 1 0. -38.8075 -32.68 -38.8075
164 41 1 0. -38.8075 -30.6375 -40.85
165 42 1 0. -36.765 -32.68 -40.85
166 42 1 0. -36.765 -30.6375 -38.8075
167 42 1 0. -34.7225 -32.68 -38.8075
168 42 1 0. -34.7225 -30.6375 -40.85
169 43 1 0. -32.68 -32.68 -40.85
170 43 1 0. -32.68 -30.6375 -38.8075
171 43 1 0. -30.6375 -32.68 -38.8075
172 43 1 0. -30.6375 -30.6375 -40.85
173 44 1 0. -28.595 -32.68 -40.85
174 44 1 0. -28.595 -30.6375 -38.8075
175 44 1 0. -26.5525 -32.68 -38.8075
176 44 1 0. -26.5525 -30.6375 -40.85
177 45 1 0. -24.51 -32.68 -40.85
178 45 1 0. -24.51 -30.6375 -38.8075
179 45 1 0. -22.4675 -32.68 -38.8075
180 45 1 0. -22.4675 -30.6375 -40.85
181 46 1 0. -20.425 -32.68 -40.85
182 46 1 0. -20.425 -30.6375 -38.8075
183 46 1 0. -18.3825 -32.68 -38.8075
184 46 1 0. -18.3825 -30.6375 -40.85
185 47 1 0. -16.34 -32.68 -40.85
186 47 1 0. -16.34 -30.6375 -38.8075
187 47 1 0. -14.2975 -32.68 -38.8075
188 47 1 0. -14.2975 -30.6375 -40.85
189 48 1 0. -12.255 -32.68 -40.85
190 48 1 0. -12.255 -30.6375 -38.8075
191 48 1 0. -10.2125 -32.68 -38.8075
192 48 1 0. -10.2125 -30.6375 -40.85
193 49 1 0. -8.17 -32.68 -40.85
194 49 1 0. -8.17 -30.6375 -38.8075
195 49 1 0. -6.1275 -32.68 -38.8075
196 49 1 0. -6.1275 -30.6375 -40.85
197 50 1 0. -4.085 -32.68 -40.85
198 50 1 0. -4.085 -30.6375 -38.8075
199 50 1 0. -2.0425 -32.68 -38.8075
200 50 1 0. -2.0425 -30.6375 -40.85
201 51 1 0. 0.0 -32.68 -40.85
202 51 1 0. 0.0 -30.6375 -38.8075
203 51 1 0. 2.0425 -32.68 -38.8075
204 51 1 0. 2.0425 -30.6375 -40.85
205 52 1 0. 4.085 -32.68 -40.85
206 52 1 0. 4.085 -30.6375 -38.8075
207 52 1 0. 6.1275 -32.68 -38.8075
208 52 1 0. 6.1275 -30.6375 -40.85
209 53 1 0. 8.17 -32.68 -40.85
210 53 1 0. 8.17 -30.6375 -38.8075
211 53 1 0. 10.2125 -32.68 -38.8075
212 53 1 0. 10.2125 -30.6375 -40.85
213 54 1 0. 12.255 -32.68 -40.85
214 54 1 0. 12.255 -30.6375 -38.8075
215 54 1 0. 14.2975 -32.68 -38.8075
216 54 1 0. 14.2975 -30.6375 -40.85
217 55 1 0. 16.34 -32.68 -40.85
218 55 1 0. 16.34 -30.6375 -38.8075
219 55 1 0. 18.3825 -32.68 -38.8075
220 55 1 0. 18.3825 -30.6375 -40.85
221 56 1 0. 20.425 -32.68 -40.85
222 56 1 0. 20.425 -30.6375 -38.8075
223 56 1 0. 22.4675 -32.68 -38.8075
224 56 1 0. 22.4675 -30.6375 -40.85
225 57 1 0. 24.51 -32.68 -40.85
226 57 1 0. 24.51 -30.6375 -38.8075
227 57 1 0. 26.5525 -32.68 -38.8075
228 57 1 0. 26.5525 -30.6375 -40.85
229 58 1 0. 28.595 -32.68 -40.85
230 58 1 0. 28.595 -30.6375 -38.8075
231 58 1 0. 30.6375 -32.68 -38.8075
232 58 1 0. 30.6375 -30.6375 -40.85
233 59 1 0. 32.68 -32.68 -40.85
234 59 1 0. 32.68 -30.6375 -38.8075
235 59 1 0. 34.7225 -32.68 -38.8075
236 59 1 0. 34.7225 -30.6375 -40.85
237 60 1 0. 36.765 -32.68 -40.85
238 60 1 0. 36.765 -30.6375 -38.8075
239 60 1 0. 38.8075 -32.68 -38.8075
240 60 1 0. 38.8075 -30.6375 -40.85
241 61 1 0. -40.85 -28.595 -40.85
242 61 1 0. -40.85 -26.5525 -38.8075
243 61 1 0. -38.8075 -28.595 -38.8075
244 61 1 0. -38.8075 -26.5525 -40.85
245 62 1 0. -36.765 -28.595 -40.85
246 62 1 0. -36.765 -26.5525 -38.8075
247 62 1 0. -34.7225 -28.595 -38.8075
248 62 1 0. -34.7225 -26.5525 -40.85
249 63 1 0. -32.68 -28.595 -40.85
250 63 1 0. -32.68 -26.5525 -38.8075
251 63 1 0. -30.6375 -28.595 -38.8075
252 63 1 0. -30.6375 -26.5525 -40.85
253 64 1 0. -28.595 -28.595 -40.85
254 64 1 0. -28.595 -26.5525 -38.8075
255 64 1 0. -26.5525 -28.595 -38.8075
256 64 1 0. -26.5525 -26.5525 -40.85
257 65 1 0. -24.51 -28.595 -40.85
258 65 1 0. -24.51 -26.5525 -38.8075
259 65 1 0. -22.4675 -28.595 -38.8075
260 65 1 0. -22.4675 -26.5525 -40.85
261 66 1 0. -20.425 -28.595 -40.85
262 66 1 0. -20.425 -26.5525 -38.8075
263 66 1 0. -18.3825 -28.595 -38.8075
264 66 1 0. -18.3825 -26.5525 -40.85
265 67 1 0. -16.34 -28.595 -40.85
266 67 1 0. -16.34 -26.5525 -38.8075
267 67 1 0. -14.2975 -28.595 -38.8075
268 67 1 0. -14.2975 -26.5525 -40.85
269 68 1 0. -12.255 -28.595 -40.85
270 68 1 0. -12.255 -26.5525 -38.8075
271 68 1 0. -10.2125 -28.595 -38.8075
272 68 1 0. -10.2125 -26.5525 -40.85
273 69 1 0. -8.17 -28.595 -40.85
274 69 1 0. -8.17 -26.5525 -38.8075
275 69 1 0. -6.1275 -28.595 -38.8075
276 69 1 0. -6.1275 -26.5525 -40.85
277 70 1 0. -4.085 -28.595 -40.85
278 70 1 0. -4.085 -26.5525 -38.8075
279 70 1 0. -2.0425 -28.595 -38.8075
280 70 1 0. -2.0425 -26.5525 -40.85
281 71 1 0. 0.0 -28.595 -40.85
282 71 1 0. 0.0 -26.5525 -38.8075
283 71 1 0. 2.0425 -28.595 -38.8075
284 71 1 0. 2.0425 -26.5525 -40.85
285 72 1 0. 4.085 -28.595 -40.85
286 72 1 0. 4.085 -26.5525 -38.8075
287 72 1 0. 6.1275 -28.595 -38.8075
288 72 1 0. 6.1275 -26.5525 -40.85
289 73 1 0. 8.17 -28.595 -40.85
290 73 1 0. 8.17 -26.5525 -38.8075
291 73 1 0. 10.2125 -28.595 -38.8075
292 73 1 0. 10.2125 -26.5525 -40.85
293 74 1 0. 12.255 -28.595 -40.85
294 74 1 0. 12.255 -26.5525 -38.8075
295 74 1 0. 14.2975 -28.595 -38.8075
296 74 1 0. 14.2975 -26.5525 -40.85
297 75 1 0. 16.34 -28.595 -40.85
298 75 1 0. 16.34 -26.5525 -38.8075
299 75 1 0. 18.3825 -28.595 -38.8075
300 75 1 0. 18.3825 -26.5525 -40.85
301 76 1 0. 20.425 -28.595 -40.85
302 76 1 0. 20.425 -26.5525 -38.8075
303 76 1 0. 22.4675 -28.595 -38.8075
304 76 1 0. 22.4675 -26.5525 -40.85
305 77 1 0. 24.51 -28.595 -40.85
306 77 1 0. 24.51 -26.5525 -38.8075
307 77 1 0. 26.5525 -28.595 -38.8075
308 77 1 0. 26.5525 -26.5525 -40.85
309 78 1 0. 28.595 -28.595 -40.85
310 78 1 0. 28.595 -26.5525 -38.8075
311 78 1 0. 30.6375 -28.595 -38.8075
312 78 1 0. 30.6375 -26.5525 -40.85
313 79 1 0. 32.68 -28.595 -40.85
314 79 1 0. 32.68 -26.5525 -38.8075
315 79 1 0. 34.7225 -28.595 -38.8075
316 79 1 0. 34.7225 -26.5525 -40.85
317 80 1 0. 36.765 -28.595 -40.85
318 80 1 0. 36.765 -26.5525 -38.8075
319 80 1 0. 38.8075 -28.595 -38.8075
320 80 1 0. 38.8075 -26.5525 -40.85
321 81 1 0. -40.85 -24.51 -40.85
322 81 1 0. -40.85 -22.4675 -38.8075
323 81 1 0. -38.8075 -24.51 -38.8075
324 81 1 0. -38.8075 -22.4675 -40.85
325 82 1 0. -36.765 -24.51 -40.85
326 82 1 0. -36.765 -22.4675 -38.8075
327 82 1 0. -34.7225 -24.51 -38.8075
328 82 1 0. -34.7225 -22.4675 -40.85
329 83 1 0. -32.68 -24.51 -40.85
330 83 1 0. -32.68 -22.4675 -38.8075
331 83 1 0. -30.6375 -24.51 -38.8075
332 83 1 0. -30.6375 -22.4675 -40.85
333 84 1 0. -28.595 -24.51 -40.85
334 84 1 0. -28.595 -22.4675 -38.8075
335 84 1 0. -26.5525 -24.51 -38.8075
336 84 1 0. -26.5525 -22.4675 -40.85
337 85 1 0. -24.51 -24.51 -40.85
338 85 1 0. -24.51 -22.4675 -38.8075
339 85 1 0. -22.4675 -24.51 -38.8075
340 85 1 0. -22.4675 -22.4675 -40.85
341 86 1 0. -20.425 -24.51 -40.85
342 86 1 0. -20.425 -22.4675 -38.8075
343 86 1 0. -18.3825 -24.51 -38.8075
344 86 1 0. -18.3825 -22.4675 -40.85
345 87 1 0. -16.34 -24.51 -40.85
346 87 1 0. -16.34 -22.4675 -38.8075
347 87 1 0. -14.2975 -24.51 -38.8075
348 87 1 0. -14.2975 -22.4675 -40.85
349 88 1 0. -12.255 -24.51 -40.85
350 88 1 0. -12.255 -22.4675 -38.8075
351 88 1 0. -10.2125 -24.51 -38.8075
352 88 1 0. -10.2125 -22.4675 -40.85
353 89 1 0. -8.17 -24.51 -40.85
354 89 1 0. -8.17 -22.4675 -38.8075
355 89 1 0. -6.1275 -24.51 -38.8075
356 89 1 0. -6.1275 -22.4675 -40.85
357 90 1 0. -4.085 -24.51 -40.85
358 90 1 0. -4.085 -22.4675 -38.8075
359 90 1 0. -2.0425 -24.51 -38.8075
360 90 1 0. -2.0425 -22.4675 -40.85
361 91 1 0. 0.0 -24.51 -40.85
362 91 1 0. 0.0 -22.4675 -38.8075
363 91 1 0. 2.0425 -24.51 -38.8075
364 91 1 0. 2.0425 -22.4675 -40.85
365 92 1 0. 4.085 -24.51 -40.85
366 92 1 0. 4.085 -22.4675 -38.8075
367 92 1 0. 6.1275 -24.51 -38.8075
368 92 1 0. 6.1275 -22.4675 -40.85
369 93 1 0. 8.17 -24.51 -40.85
370 93 1 0. 8.17 -22.4675 -38.8075
371 93 1 0. 10.2125 -24.51 -38.8075
372 93 1 0. 10.2125 -22.4675 -40.85
373 94 1 0. 12.255 -24.51 -40.85
374 94 1 0. 12.255 -22.4675 -38.8075
375 94 1 0. 14.2975 -24.51 -38.8075
376 94 1 0. 14.2975 -22.4675 -40.85
377 95 1 0. 16.34 -24.51 -40.85
378 95 1 0. 16.34 -22.4675 -38.8075
379 95 1 0. 18.3825 -24.51 -38.8075
380 95 1 0. 18.3825 -22.4675 -40.85
381 96 1 0. 20.425 -24.51 -40.85
382 96 1 0. 20.425 -22.4675 -38.8075
383 96 1 0. 22.4675 -24.51 -38.8075
384 96 1 0. 22.4675 -22.4675 -40.85
385 97 1 0. 24.51 -24.51 -40.85
386 97 1 0. 24.51 -22.4675 -38.8075
387 97 1 0. 26.5525 -24.51 -38.8075
388 97 1 0. 26.5525 -22.4675 -40.85
389 98 1 0. 28.595 -24.51 -40.85
390 98 1 0. 28.595 -22.4675 -38.8075
391 98 1 0. 30.6375 -24.51 -38.8075
392 98 1 0. 30.6375 -22.4675 -40.85
393 99 1 0. 32.68 -24.51 -40.85
394 99 1 0. 32.68 -22.4675 -38.8075
395 99 1 0. 34.7225 -24.51 -38.8075
396 99 1 0. 34.7225 -22.4675 -40.85
397 100 1 0. 36.765 -24.51 -40.85
398 100 1 0. 36.765 -22.4675 -38.8075
399 100 1 0. 38.8075 -24.51 -38.8075
400 100 1 0. 38.8075 -22.4675 -40.85
401 101 1 0. -40.85 -20.425 -40.85
402 101 1 0. -40.85 -18.3825 -38.8075
403 101 1 0. -38.8075 -20.425 -38.8075
404 101 1 0. -38.8075 -18.3825 -40.85
405 102 1 0. -36.765 -20.425 -40.85
406 102 1 0. -36.765 -18.3825 -38.8075
407 102 1 0. -34.7225 -20.425 -38.8075
408 102 1 0. -34.7225 -18.3825 -40.85
409 103 1 0. -32.68 -20.425 -40.85
410 103 1 0. -32.68 -18.3825 -38.8075
411 103 1 0. -30.6375 -20.425 -38.8075
412 103 1 0. -30.6375 -18.3825 -40.85
413 104 1 0. -28.595 -20.425 -40.85
414 104 1 0. -28.595 -18.3825 -38.8075
415 104 1 0. -26.5525 -20.425 -38.8075
416 104 1 0. -26.5525 -18.3825 -40.85
417 105 1 0. -24.51 -20.425 -40.85
418 105 1 0. -24.51 -18.3825 -38.8075
419 105 1 0. -22.4675 -20.425 -38.8075
420 105 1 0. -22.4675 -18.3825 -40.85
421 106 1 0. -20.425 -20.425 -40.85
422 106 1 0. -20.425 -18.3825 -38.8075
423 106 1 0. -18.3825 -20.425 -38.8075
424 106 1 0. -18.3825 -18.3825 -40.85
425 107 1 0. -16.34 -20.425 -40.85
426 107 1 0. -16.34 -18.3825 -38.8075
427 107 1 0. -14.2975 -20.425 -38.8075
428 107 1 0. -14.2975 -18.3825 -40.85
429 108 1 0. -12.255 -20.425 -40.85
430 108 1 0. -12.255 -18.3825 -38.8075
431 108 1 0. -10.2125 -20.425 -38.8075
432 108 1 0. -10.2125 -18.3825 -40.85
433 109 1 0. -8.17 -20.425 -40.85
434 109 1 0. -8.17 -18.3825 -38.8075
435 109 1 0. -6.1275 -20.425 -38.8075
436 109 1 0. -6.1275 -18.3825 -40.85
437 110 1 0. -4.085 -20.425 -40.85
438 110 1 0. -4.085 -18.3825 -38.8075
439 110 1 0. -2.0425 -20.425 -38.8075
440 110 1 0. -2.0425 -18.3825 -40.85
441 111 1 0. 0.0 -20.425 -40.85
442 111 1 0. 0.0 -18.3825 -38.8075
443 111 1 0. 2.0425 -20.425 -38.8075
444 111 1 0. 2.0425 -18.3825 -40.85
445 112 1 0. 4.085 -20.425 -40.85
446 112 1 0. 4.085 -18.3825 -38.8075
447 112 1 0. 6.1275 -20.425 -38.8075
448 112 1 0. 6.1275 -18.3825 -40.85
449 113 1 0. 8.17 -20.425 -40.85
450 113 1 0. 8.17 -18.3825 -38.8075
451 113 1 0. 10.2125 -20.425 -38.8075
452 113 1 0. 10.2125 -18.3825 -40.85
453 114 1 0. 12.255 -20.425 -40.85
454 114 1 0. 12.255 -18.3825 -38.8075
455 114 1 0. 14.2975 -20.425 -38.8075
456 114 1 0. 14.2975 -18.3825 -40.85
457 115 1 0. 16.34 -20.425 -40.85
458 115 1 0. 16.34 -18.3825 -38.8075
459 115 1 0. 18.3825 -20.425 -38.8075
460 115 1 0. 18.3825 -18.3825 -40.85
461 116 1 0. 20.425 -20.425 -40.85
462 116 1 0. 20.425 -18.3825 -38.8075
463 116 1 0. 22.4675 -20.425 -38.8075
464 116 1 0. 22.4675 -18.3825 -40.85
465 117 1 0. 24.51 -20.425 -40.85
466 117 1 0. 24.51 -18.3825 -38.8075
467 117 1 0. 26.5525 -20.425 -38.8075
468 117 1 0. 26.5525 -18.3825 -40.85
469 118 1 0. 28.595 -20.425 -40.85
470 118 1 0. 28.595 -18.3825 -38.8075
471 118 1 0. 30.6375 -20.425 -38.8075
472 118 1 0. 30.6375 -18.3825 -40.85
473 119 1 0. 32.68 -20.425 -40.85
474 119 1 0. 32.68 -18.3825 -38.8075
475 119 1 0. 34.7225 -20.425 -38.8075
476 119 1 0. 34.7225 -18.3825 -40.85
477 120 1 0. 36.765 -20.425 -40.85
478 120 1 0. 36.765 -18.3825 -38.8075
479 120 1 0. 38.8075 -20.425 -38.8075
480 120 1 0. 38.8075 -18.3825 -40.85
481 121 1 0. -40.85 -16.34 -40.85
482 121 1 0. -40.85 -14.2975 -38.8075
483 121 1 0. -38.8075 -16.34 -38.8075
484 121 1 0. -38.8075 -14.2975 -40.85
485 122 1 0. -36.765 -16.34 -40.85
486 122 1 0. -36.765 -14.2975 -38.8075
487 122 1 0. -34.7225 -16.34 -38.8075
488 122 1 0. -34.7225 -14.2975 -40.85
489 123 1 0. -32.68 -16.34 -40.85
490 123 1 0. -32.68 -14.2975 -38.8075
491 123 1 0. -30.6375 -16.34 -38.8075
492 123 1 0. -30.6375 -14.2975 -40.85
493 124 1 0. -28.595 -16.34 -40.85
494 124 1 0. -28.595 -14.2975 -38.8075
495 124 1 0. -26.5525 -16.34 -38.8075
496 124 1 0. -26.5525 -14.2975 -40.85
497 125 1 0. -24.51 -16.34 -40.85
498 125 1 0. -24.51 -14.2975 -38.8075
499 125 1 0. -22.4675 -16.34 -38.8075
500 125 1 0. -22.4675 -14.2975 -40.85
501 126 1 0. -20.425 -16.34 -40.85
502 126 1 0. -20.425 -14.2975 -38.8075
503 126 1 0. -18.3825 -16.34 -38.8075
504 126 1 0. -18.3825 -14.2975 -40.85
505 127 1 0. -16.34 -16.34 -40.85
506 127 1 0. -16.34 -14.2975 -38.8075
507 127 1 0. -14.2975 -16.34 -38.8075
508 127 1 0. -14.2975 -14.2975 -40.85
509 128 1 0. -12.255 -16.34 -40.85
510 128 1 0. -12.255 -14.2975 -38.8075
511 128 1 0. -10.2125 -16.34 -38.8075
512 128 1 0. -10.2125 -14.2975 -40.85
513 129 1 0. -8.17 -16.34 -40.85
514 129 1 0. -8.17 -14.2975 -38.8075
515 129 1 0. -6.1275 -16.34 -38.8075
516 129 1 0. -6.1275 -14.2975 -40.85
517 130 1 0. -4.085 -16.34 -40.85
518 130 1 0. -4.085 -14.2975 -38.8075
519 130 1 0. -2.0425 -16.34 -38.8075
520 130 1 0. -2.0425 -14.2975 -40.85
521 131 1 0. 0.0 -16.34 -40.85
522 131 1 0. 0.0 -14.2975 -38.8075
523 131 1 0. 2.0425 -16.34 -38.8075
524 131 1 0. 2.0425 -14.2975 -40.85
525 132 1 0. 4.085 -16.34 -40.85
526 132 1 0. 4.085 -14.2975 -38.8075
527 132 1 0. 6.1275 -16.34 -38.8075
528 132 1 0. 6.1275 -14.2975 -40.85
529 133 1 0. 8.17 -16.34 -40.85
530 133 1 0. 8.17 -14.2975 -38.8075
531 133 1 0. 10.2125 -16.34 -38.8075
532 133 1 0. 10.2125 -14.2975 -40.85
533 134 1 0. 12.255 -16.34 -40.85
534 134 1 0. 12.255 -14.2975 -38.8075
535 134 1 0. 14.2975 -16.34 -38.8075
536 134 1 0. 14.2975 -14.2975 -40.85
537 135 1 0. 16.34 -16.34 -40.85
538 135 1 0. 16.34 -14.2975 -38.8075
539 135 1 0. 18.3825 -16.34 -38.8075
540 135 1 0. 18.3825 -14.2975 -40.85
541 136 1 0. 20.425 -16.34 -40.85
542 136 1 0. 20.425 -14.2975 -38.8075
543 136 1 0. 22.4675 -16.34 -38.8075
544 136 1 0. 22.4675 -14.2975 -40.85
545 137 1 0. 24.51 -16.34 -40.85
546 137 1 0. 24.51 -14.2975 -38.8075
547 137 1 0. 26.5525 -16.34 -38.8075
548 137 1 0. 26.5525 -14.2975 -40.85
549 138 1 0. 28.595 -16.34 -40.85
550 138 1 0. 28.595 -14.2975 -38.8075
551 138 1 0. 30.6375 -16.34 -38.8075
552 138 1 0. 30.6375 -14.2975 -40.85
553 139 1 0. 32.68 -16.34 -40.85
554 139 1 0. 32.68 -14.2975 -38.8075
555 139 1 0. 34.7225 -16.34 -38.8075
556 139 1 0. 34.7225 -14.2975 -40.85
557 140 1 0. 36.765 -16.34 -40.85
558 140 1 0. 36.765 -14.2975 -38.8075
559 140 1 0. 38.8075 -16.34 -38.8075
560 140 1 0. 38.8075 -14.2975 -40.85
561 141 1 0. -40.85 -12.255 -40.85
562 141 1 0. -40.85 -10.2125 -38.8075
563 141 1 0. -38.8075 -12.255 -38.8075
564 141 1 0. -38.8075 -10.2125 -40.85
565 142 1 0. -36.765 -12.255 -40.85
566 142 1 0. -36.765 -10.2125 -38.8075
567 142 1 0. -34.7225 -12.255 -38.8075
568 142 1 0. -34.7225 -10.2125 -40.85
569 143 1 0. -32.68 -12.255 -40.85
570 143 1 0. -32.68 -10.2125 -38.8075
571 143 1 0. -30.6375 -12.255 -38.8075
572 143 1 0. -30.6375 -10.2125 -40.85
573 144 1 0. -28.595 -12.255 -40.85
574 144 1 0. -28.595 -10.2125 -38.8075
575 144 1 0. -26.5525 -12.255 -38.8075
576 144 1 0. -26.5525 -10.2125 -40.85
577 145 1 0. -24.51 -12.255 -40.85
578 145 1 0. -24.51 -10.2125 -38.8075
579 145 1 0. -22.4675 -12.255 -38.8075
580 145 1 0. -22.4675 -10.2125 -40.85
581 146 1 0. -20.425 -12.255 -40.85
582 146 1 0. -20.425 -10.2125 -38.8075
583 146 1 0. -18.3825 -12.255 -38.8075
584 146 1 0. -18.3825 -10.2125 -40.85
585 147 1 0. -16.34 -12.255 -40.85
586 147 1 0. -16.34 -10.2125 -38.8075
587 147 1 0. -14.2975 -12.255 -38.8075
588 147 1 0. -14.2975 -10.2125 -40.85
589 148 1 0. -12.255 -12.255 -40.85
590 148 1 0. -12.255 -10.2125 -38.8075
591 148 1 0. -10.2125 -12.255 -38.8075
592 148 1 0. -10.2125 -10.2125 -40.85
593 149 1 0. -8.17 -12.255 -40.85
594 149 1 0. -8.17 -10.2125 -38.8075
595 149 1 0. -6.1275 -12.255 -38.8075
596 149 1 0. -6.1275 -10.2125 -40.85
597 150 1 0. -4.085 -12.255 -40.85
598 150 1 0. -4.085 -10.2125 -38.8075
599 150 1 0. -2.0425 -12.255 -38.8075
600 150 1 0. -2.0425 -10.2125 -40.85
601 151 1 0. 0.0 -12.255 -40.85
602 151 1 0. 0.0 -10.2125 -38.8075
603 151 1 0. 2.0425 -12.255 -38.8075
604 151 1 0. 2.0425 -10.2125 -40.85
605 152 1 0. 4.085 -12.255 -40.85
606 152 1 0. 4.085 -10.2125 -38.8075
607 152 1 0. 6.1275 -12.255 -38.8075
608 152 1 0. 6.1275 -10.2125 -40.85
609 153 1 0. 8.17 -12.255 -40.85
610 153 1 0. 8.17 -10.2125 -38.8075
611 153 1 0. 10.2125 -12.255 -38.8075
612 153 1 0. 10.2125 -10.2125 -40.85
613 154 1 0. 12.255 -12.255 -40.85
614 154 1 0. 12.255 -10.2125 -38.8075
615 154 1 0. 14.2975 -12.255 -38.8075
616 154 1 0. 14.2975 -10.2125 -40.85
617 155 1 0. 16.34 -12.255 -40.85
618 155 1 0. 16.34 -10.2125 -38.8075
619 155 1 0. 18.3825 -12.255 -38.8075
620 155 1 0. 18.3825 -10.2125 -40.85
621 156 1 0. 20.425 -12.255 -40.85
622 156 1 0. 20.425 -10.2125 -38.8075
623 156 1 0. 22.4675 -12.255 -38.8075
624 156 1 0. 22.4675 -10.2125 -40.85
625 157 1 0. 24.51 -12.255 -40.85
626 157 1 0. 24.51 -10.2125 -38.8075
627 157 1 0. 26.5525 -12.255 -38.8075
628 157 1 0. 26.5525 -10.2125 -40.85
629 158 1 0. 28.595 -12.255 -40.85
630 158 1 0. 28.595 -10.2125 -38.8075
631 158 1 0. 30.6375 -12.255 -38.8075
632 158 1 0. 30.6375 -10.2125 -40.85
633 159 1 0. 32.68 -12.255 -40.85
634 159 1 0. 32.68 -10.2125 -38.8075
635 159 1 0. 34.7225 -12.255 -38.8075
636 159 1 0. 34.7225 -10.2125 -40.85
637 160 1 0. 36.765 -12.255 -40.85
638 160 1 0. 36.765 -10.2125 -38.8075
639 160 1 0. 38.8075 -12.255 -38.8075
640 160 1 0. 38.8075 -10.2125 -40.85
641 161 1 0. -40.85 -8.17 -40.85
642 161 1 0. -40.85 -6.1275 -38.8075
643 161 1 0. -38.8075 -8.17 -38.8075
644 161 1 0. -38.8075 -6.1275 -40.85
645 162 1 0. -36.765 -8.17 -40.85
646 162 1 0. -36.765 -6.1275 -38.8075
647 162 1 0. -34.7225 -8.17 -38.8075
648 162 1 0. -34.7225 -6.1275 -40.85
649 163 1 0. -32.68 -8.17 -40.85
650 163 1 0. -32.68 -6.1275 -38.8075
651 163 1 0. -30.6375 -8.17 -38.8075
652 163 1 0. -30.6375 -6.1275 -40.85
653 164 1 0. -28.595 -8.17 -40.85
654 164 1 0. -28.595 -6.1275 -38.8075
655 164 1 0. -26.5525 -8.17 -38.8075
656 164 1 0. -26.5525 -6.1275 -40.85
657 165 1 0. -24.51 -8.17 -40.85
658 165 1 0. -24.51 -6.1275 -38.8075
659 165 1 0. -22.4675 -8.17 -38.8075
660 165 1 0. -22.4675 -6.1275 -40.85
661 166 1 0. -20.425 -8.17 -40.85
662 166 1 0. -20.425 -6.1275 -38.8075
663 166 1 0. -18.3825 -8.17 -38.8075
664 166 1 0. -18.3825 -6.1275 -40.85
665 167 1 0. -16.34 -8.17 -40.85
666 167 1 0. -16.34 -6.1275 -38.8075
667 167 1 0. -14.2975 -8.17 -38.8075
668 167 1 0. -14.2975 -6.1275 -40.85
669 168 1 0. -12.255 -8.17 -40.85
670 168 1 0. -12.255 -6.1275 -38.8075
671 168 1 0. -10.2125 -8.17 -38.8075
672 168 1 0. -10.2125 -6.1275 -40.85
673 169 1 0. -8.17 -8.17 -40.85
674 169 1 0. -8.17 -6.1275 -38.8075
675 169 1 0. -6.1275 -8.17 -38.8075
676 169 1 0. -6.1275 -6.1275 -40.85
677 170 1 0. -4.085 -8.17 -40.85
678 170 1 0. -4.085 -6.1275 -38.8075
679 170 1 0. -2.0425 -8.17 -38.8075
680 170 1 0. -2.0425 -6.1275 -40.85
681 171 1 0. 0.0 -8.17 -40.85
682 171 1 0. 0.0 -6.1275 -38.8075
683 171 1 0. 2.0425 -8.17 -38.8075
684 171 1 0. 2.0425 -6.1275 -40.85
685 172 1 0. 4.085 -8.17 -40.85
686 172 1 0. 4.085 -6.1275 -38.8075
687 172 1 0. 6.1275 -8.17 -38.8075
688 172 1 0. 6.1275 -6.1275 -40.85
689 173 1 0. 8.17 -8.17 -40.85
690 173 1 0. 8.17 -6.1275 -38.8075
691 173 1 0. 10.2125 -8.17 -38.8075
692 173 1 0. 10.2125 -6.1275 -40.85
693 174 1 0. 12.255 -8.17 -40.85
694 174 1 0. 12.255 -6.1275 -38.8075
695 174 1 0. 14.2975 -8.17 -38.8075
696 174 1 0. 14.2975 -6.1275 -40.85
697 175 1 0. 16.34 -8.17 -40.85
698 175 1 0. 16.34 -6.1275 -38.8075
699 175 1 0. 18.3825 -8.17 -38.8075
700 175 1 0. 18.3825 -6.1275 -40.85
701 176 1 0. 20.425 -8.17 -40.85
702 176 1 0. 20.425 -6.1275 -38.8075
703 176 1 0. 22.4675 -8.17 -38.8075
704 176 1 0. 22.4675 -6.1275 -40.85
705 177 1 0. 24.51 -8.17 -40.85
706 177 1 0. 24.51 -6.1275 -38.8075
707 177 1 0. 26.5525 -8.17 -38.8075
708 177 1 0. 26.5525 -6.1275 -40.85
709 178 1 0. 28.595 -8.17 -40.85
710 178 1 0. 28.595 -6.1275 -38.8075
711 178 1 0. 30.6375 -8.17 -38.8075
712 178 1 0. 30.6375 -6.1275 -40.85
713 179 1 0. 32.68 -8.17 -40.85
714 179 1 0. 32.68 -6.1275 -38.8075
715 179 1 0. 34.7225 -8.17 -38.8075
716 179 1 0. 34.7225 -6.1275 -40.85
717 180 1 0. 36.765 -8.17 -40.85
718 180 1 0. 36.765 -6.1275 -38.8075
719 180 1 0. 38.8075 -8.17 -38.8075
720 180 1 0. 38.8075 -6.1275 -40.85
721 181 1 0. -40.85 -4.085 -40.85
722 181 1 0. -40.85 -2.0425 -38.8075
723 181 1 0. -38.8075 -4.085 -38.8075
724 181 1 0. -38.8075 -2.0425 -40.85
725 182 1 0. -36.765 -4.085 -40.85
726 182 1 0. -36.765 -2.0425 -38.8075
727 182 1 0. -34.7225 -4.085 -38.8075
728 182 1 0. -34.7225 -2.0425 -40.85
729 183 1 0. -32.68 -4.085 -40.85
730 183 1 0. -32.68 -2.0425 -38.8075
731 183 1 0. -30.6375 -4.085 -38.8075
732 183 1 0. -30.6375 -2.0425 -40.85
733 184 1 0. -28.595 -4.085 -40.85
734 184 1 0. -28.595 -2.0425 -38.8075
735 184 1 0. -26.5525 -4.085 -38.8075
736 184 1 0. -26.5525 -2.0425 -40.85
737 185 1 0. -24.51 -4.085 -40.85
738 185 1 0. -24.51 -2.0425 -38.8075
739 185 1 0. -22.4675 -4.085 -38.8075
740 185 1 0. -22.4675 -2.0425 -40.85
741 186 1 0. -20.425 -4.085 -40.85
742 186 1 0. -20.425 -2.0425 -38.8075
743 186 1 0. -18.3825 -4.085 -38.8075
744 186 1 0. -18.3825 -2.0425 -40.85
745 187 1 0. -16.34 -4.085 -40.85
746 187 1 0. -16.34 -2.0425 -38.8075
747 187 1 0. -14.2975 -4.085 -38.8075
748 187 1 0. -14.2975 -2.0425 -40.85
749 188 1 0. -12.255 -4.085 -40.85
750 188 1 0. -12.255 -2.0425 -38.8075
751 188 1 0. -10.2125 -4.085 -38.8075
752 188 1 0. -10.2125 -2.0425 -40.85
753 189 1 0. -8.17 -4.085 -40.85
754 189 1 0. -8.17 -2.0425 -38.8075
755 189 1 0. -6.1275 -4.085 -38.8075
756 189 1 0. -6.1275 -2.0425 -40.85
757 190 1 0. -4.085 -4.085 -40.85
758 190 1 0. -4.085 -2.0425 -38.8075
759 190 1 0. -2.0425 -4.085 -38.8075
760 190 1 0. -2.0425 -2.0425 -40.85
761 191 1 0. 0.0 -4.085 -40.85
762 191 1 0. 0.0 -2.0425 -38.8075
763 191 1 0. 2.0425 -4.085 -38.8075
764 191 1 0. 2.0425 -2.0425 -40.85
765 192 1 0. 4.085 -4.085 -40.85
766 192 1 0. 4.085 -2.0425 -38.8075
767 192 1 0. 6.1275 -4.085 -38.8075
768 192 1 0. 6.1275 -2.0425 -40.85
769 193 1 0. 8.17 -4.085 -40.85
770 193 1 0. 8.17 -2.0425 -38.8075
771 193 1 0. 10.2125 -4.085 -38.8075
772 193 1 0. 10.2125 -2.0425 -40.85
773 194 1 0. 12.255 -4.085 -40.85
774 194 1 0. 12.255 -2.0425 -38.8075
775 194 1 0. 14.2975 -4.085 -38.8075
776 194 1 0. 14.2975 -2.0425 -40.85
777 195 1 0. 16.34 -4.085 -40.85
778 195 1 0. 16.34 -2.0425 -38.8075
779 195 1 0. 18.3825 -4.085 -38.8075
780 195 1 0. 18.3825 -2.0425 -40.85
781 196 1 0. 20.425 -4.085 -40.85
782 196 1 0. 20.425 -2.0425 -38.8075
783 196 1 0. 22.4675 -4.085 -38.8075
784 196 1 0. 22.4675 -2.0425 -40.85
785 197 1 0. 24.51 -4.085 -40.85
786 197 1 0. 24.51 -2.0425 -38.8075
787 197 1 0. 26.5525 -4.085 -38.8075
788 197 1 0. 26.5525 -2.0425 -40.85
789 198 1 0. 28.595 -4.085 -40.85
790 198 1 0. 28.595 -2.0425 -38.8075
791 198 1 0. 30.6375 -4.085 -38.8075
792 198 1 0. 30.6375 -2.0425 -40.85
793 199 1 0. 32.68 -4.085 -40.85
794 199 1 0. 32.68 -2.0425 -38.8075
795 199 1 0. 34.7225 -4.085 -38.8075
796 199 1 0. 34.7225 -2.0425 -40.85
797 200 1 0. 36.765 -4.085 -40.85
798 200 1 0. 36.765 -2.0425 -38.8075
799 200 1 0. 38.8075 -4.085 -38.8075
800 200 1 0. 38.8075 -2.0425 -40.85
801 201 1 0. -40.85 0.0 -40.85
802 201 1 0. -40.85 2.0425 -38.8075
803 201 1 0. -38.8075 0.0 -38.8075
804 201 1 0. -38.8075 2.0425 -40.85
805 202 1 0. -36.765 0.0 -40.85
806 202 1 0. -36.765 2.0425 -38.8075
807 202 1 0. -34.7225 0.0 -38.8075
808 202 1 0. -34.7225 2.0425 -40.85
809 203 1 0. -32.68 0.0 -40.85
810 203 1 0. -32.68 2.0425 -38.8075
811 203 1 0. -30.6375 0.0 -38.8075
812 203 1 0. -30.6375 2.0425 -40.85
813 204 1 0. -28.595 0.0 -40.85
814 204 1 0. -28.595 2.0425 -38.8075
815 204 1 0. -26.5525 0.0 -38.8075
816 204 1 0. -26.5525 2.0425 -40.85
817 205 1 0. -24.51 0.0 -40.85
818 205 1 0. -24.51 2.0425 -38.8075
819 205 1 0. -22.4675 0.0 -38.8075
820 205 1 0. -22.4675 2.0425 -40.85
821 206 1 0. -20.425 0.0 -40.85
822 206 1 0. -20.425 2.0425 -38.8075
823 206 1 0. -18.3825 0.0 -38.8075
824 206 1 0. -18.3825 2.0425 -40.85
825 207 1 0. -16.34 0.0 -40.85
826 207 1 0. -16.34 2.0425 -38.8075
827 207 1 0. -14.2975 0.0 -38.8075