LAMMPS data file via write_data, version 15 May 2015, timestep = 0

4299 atoms
6 atom types
1648 bonds
5 bond types
1442 angles
5 angle types
1236 dihedrals
5 dihedral types

-1.0081000000000000e+02 1.5081000000000000e+02 xlo xhi
-1.0050749999999999e+02 1.5050749999999999e+02 ylo yhi
-1.0004550000000000e+02 1.5004550000000000e+02 zlo zhi

Masses

1 107.868
2 12.0112
3 12.0112
4 32.064
5 15.9994
6 1.00797

Bond Coeffs # class2

1 1.53 299.67 -501.77 679.81
2 1.53 299.67 -501.77 679.81
3 1.823 225.277 -327.706 488.972
4 1.42 400.395 -835.195 1313.01
5 0.965 532.506 -1282.9 2004.77

Angle Coeffs # class2

1 112.67 39.516 -7.443 -9.5583
2 112.67 39.516 -7.443 -9.5583
3 112.564 47.0276 -10.679 -10.1687
4 105.8 52.7061 -12.109 -9.8681
5 111.27 54.5381 -8.3642 -13.0838

BondBond Coeffs

1 0 1.53 1.53
2 0 1.53 1.53
3 10.9186 1.53 1.823
4 -9.6879 1.42 0.965
5 11.4318 1.53 1.42

BondAngle Coeffs

1 8.016 8.016 1.53 1.53
2 8.016 8.016 1.53 1.53
3 -3.5621 22.3865 1.53 1.823
4 28.58 18.9277 1.42 0.965
5 2.6868 20.4033 1.53 1.42

Dihedral Coeffs # class2

1 0 0 0.0514 0 -0.143 0
2 0 0 0.0514 0 -0.143 0
3 -0.7017 0 0.0201 0 0.104 0
4 0 0 0 0 0.158 0
5 -0.6732 0 -0.4778 0 -0.167 0

AngleAngleTorsion Coeffs

1 -22.045 112.67 112.67
2 -22.045 112.67 112.67
3 -26.71 112.564 112.67
4 0 112.564 111.27
5 -12.1038 105.8 111.27

EndBondTorsion Coeffs

1 -0.0732 0 0 -0.0732 0 0 1.53 1.53
2 -0.0732 0 0 -0.0732 0 0 1.53 1.53
3 -0.7991 -0.959 0.5855 -0.1586 -0.7244 -0.2608 1.823 1.53
4 0 0 0 0 0 0 1.823 1.42
5 0 0.5343 0.9025 -0.58 0.9004 0 0.965 1.53

MiddleBondTorsion Coeffs

1 -17.787 -7.1877 0 1.53
2 -17.787 -7.1877 0 1.53
3 -4.2593 -5.6468 -3.3835 1.53
4 0 0 0 1.53
5 1.2472 0 0.7485 1.42

BondBond13 Coeffs

1 0 1.53 1.53
2 0 1.53 1.53
3 0 1.823 1.53
4 0 1.823 1.42
5 0 0.965 1.53

AngleTorsion Coeffs

1 0.3886 -0.3139 0.1389 0.3886 -0.3139 0.1389 112.67 112.67
2 0.3886 -0.3139 0.1389 0.3886 -0.3139 0.1389 112.67 112.67
3 1.1179 0.3638 0.9423 -2.0927 -0.1498 -1.7848 112.564 112.67
4 0 0 0 0 0 0 112.564 111.27
5 0.8726 -0.3577 0.3888 -3.5903 2.5225 0.4888 105.8 111.27

Atoms # full

4192 2640 3 0.0000000000000000e+00 7.0924428780000000e+01 4.7315121310000002e+01 2.4910791499999998e+01 0 0 0
4264 2648 3 0.0000000000000000e+00 6.0198144390000003e+01 5.4633041210000002e+01 2.1726533270000001e+01 0 0 0
4265 2648 2 0.0000000000000000e+00 6.0201358050000003e+01 5.4951266969999999e+01 2.4204507639999999e+01 0 0 0
4267 2648 2 0.0000000000000000e+00 5.9707171830000000e+01 5.4065188929999998e+01 2.3059984660000001e+01 0 0 0
4251 2647 3 0.0000000000000000e+00 5.4537983210000000e+01 6.0464147160000003e+01 2.1735922779999999e+01 0 0 0
4252 2647 2 0.0000000000000000e+00 5.4852437479999999e+01 6.0571135519999999e+01 2.4212070380000000e+01 0 0 0
4254 2647 2 0.0000000000000000e+00 5.3898670740000000e+01 6.0889448790000003e+01 2.3059554500000001e+01 0 0 0
4148 2636 3 0.0000000000000000e+00 4.5484015890000002e+01 6.5152297950000005e+01 2.4603891350000001e+01 0 0 0
4287 2651 3 0.0000000000000000e+00 5.7705595090000003e+01 6.7158216350000004e+01 2.1733761439999999e+01 0 0 0
4288 2651 2 0.0000000000000000e+00 5.7930251730000002e+01 6.6917848260000000e+01 2.4210329130000002e+01 0 0 0
4290 2651 2 0.0000000000000000e+00 5.7797346740000002e+01 6.7916632140000004e+01 2.3059653590000000e+01 0 0 0
4228 2644 3 0.0000000000000000e+00 6.5535808500000002e+01 7.7004486889999995e+01 2.4554898840000000e+01 0 0 0
4215 2643 3 0.0000000000000000e+00 7.3362220420000000e+01 7.2354304099999993e+01 2.4593024150000002e+01 0 0 0
4045 2625 3 0.0000000000000000e+00 5.9221353020000002e+01 3.5450919229999997e+01 3.0671507540000000e+01 0 0 0
4048 2625 2 0.0000000000000000e+00 5.8971887479999999e+01 3.6917435879999999e+01 3.1030253580000000e+01 0 0 0
4179 2639 3 0.0000000000000000e+00 6.1426288430000000e+01 4.3784544240000002e+01 2.5184928920000001e+01 0 0 0
4066 2627 2 0.0000000000000000e+00 7.6795403719999996e+01 4.2238378380000000e+01 3.1050197120000000e+01 0 0 0
4063 2627 3 0.0000000000000000e+00 7.8090718260000003e+01 4.2157598940000000e+01 3.0239495089999998e+01 0 0 0
4166 2638 3 0.0000000000000000e+00 5.0776880830000003e+01 4.7087002349999999e+01 2.5277302970000001e+01 0 0 0
4167 2638 2 0.0000000000000000e+00 5.1533659000000000e+01 4.8020140840000003e+01 2.7467776499999999e+01 0 0 0
4168 2638 2 0.0000000000000000e+00 5.2289587099999999e+01 4.8954407920000001e+01 2.9658211319999999e+01 0 0 0
4169 2638 2 0.0000000000000000e+00 5.1871744919999998e+01 4.7891157000000000e+01 2.5981725269999998e+01 0 0 0
4171 2638 2 0.0000000000000000e+00 5.2627764790000001e+01 4.8824567899999998e+01 2.8171037519999999e+01 0 0 0
4173 2638 2 0.0000000000000000e+00 5.3384349000000000e+01 4.9759349729999997e+01 3.0362023189999999e+01 0 0 0
4180 2639 2 0.0000000000000000e+00 6.1333476259999998e+01 4.4949888479999998e+01 2.7392867689999999e+01 0 0 0
4181 2639 2 0.0000000000000000e+00 6.1239886740000003e+01 4.6114239859999998e+01 2.9601445020000000e+01 0 0 0
4182 2639 2 0.0000000000000000e+00 6.0736298980000001e+01 4.4890773350000003e+01 2.5986037260000000e+01 0 0 0
4184 2639 2 0.0000000000000000e+00 6.0642961249999999e+01 4.6055041799999998e+01 2.8193224860000001e+01 0 0 0
4186 2639 2 0.0000000000000000e+00 6.0548983470000003e+01 4.7220085699999998e+01 3.0402409290000001e+01 0 0 0
4193 2640 2 0.0000000000000000e+00 7.0228821479999993e+01 4.8119333810000001e+01 2.7171545290000001e+01 0 0 0
4194 2640 2 0.0000000000000000e+00 6.9534071240000003e+01 4.8922679709999997e+01 2.9433014810000000e+01 0 0 0
4195 2640 2 0.0000000000000000e+00 6.9853191879999997e+01 4.7212375899999998e+01 2.5998678330000001e+01 0 0 0
4197 2640 2 0.0000000000000000e+00 6.9158315930000001e+01 4.8015593320000001e+01 2.8258744530000001e+01 0 0 0
4199 2640 2 0.0000000000000000e+00 6.8462927149999999e+01 4.8818940570000002e+01 3.0520982929999999e+01 0 0 0
4022 2622 3 0.0000000000000000e+00 3.6908094570000003e+01 5.4550878480000002e+01 3.0159799169999999e+01 0 0 0
4025 2622 2 0.0000000000000000e+00 3.7941493280000003e+01 5.3861981499999999e+01 3.1053729210000000e+01 0 0 0
4266 2648 2 0.0000000000000000e+00 6.0205857320000000e+01 5.5268940569999998e+01 2.6682682410000002e+01 0 0 0
4268 2648 2 0.0000000000000000e+00 6.0209487150000001e+01 5.5586271750000002e+01 2.9160497249999999e+01 0 0 0
4269 2648 2 0.0000000000000000e+00 5.9711068650000001e+01 5.4382808199999999e+01 2.5536880480000001e+01 0 0 0
4271 2648 2 0.0000000000000000e+00 5.9715301709999999e+01 5.4700192010000002e+01 2.8015973970000001e+01 0 0 0
4273 2648 2 0.0000000000000000e+00 5.9718061910000003e+01 5.5017184559999997e+01 3.0493431059999999e+01 0 0 0
4009 2621 3 0.0000000000000000e+00 3.6499599600000003e+01 6.4198599079999994e+01 2.9872920950000001e+01 0 0 0
4012 2621 2 0.0000000000000000e+00 3.6834304359999997e+01 6.3302014960000001e+01 3.1066952990000001e+01 0 0 0
4150 2636 2 0.0000000000000000e+00 4.7246624650000001e+01 6.4581298599999997e+01 2.9244474490000002e+01 0 0 0
4152 2636 2 0.0000000000000000e+00 4.8127327590000000e+01 6.4295468619999994e+01 3.1564591340000000e+01 0 0 0
4153 2636 2 0.0000000000000000e+00 4.6036422170000002e+01 6.4367878329999996e+01 2.8331912050000000e+01 0 0 0
4155 2636 2 0.0000000000000000e+00 4.6917979400000000e+01 6.4081491830000004e+01 3.0653009749999999e+01 0 0 0
4253 2647 2 0.0000000000000000e+00 5.5166552820000000e+01 6.0676771559999999e+01 2.6688450710000001e+01 0 0 0
4255 2647 2 0.0000000000000000e+00 5.5480190810000003e+01 6.0783202060000001e+01 2.9164451990000000e+01 0 0 0
4256 2647 2 0.0000000000000000e+00 5.4212635960000000e+01 6.0995640070000000e+01 2.5534642240000000e+01 0 0 0
4258 2647 2 0.0000000000000000e+00 5.4526422519999997e+01 6.1101514270000003e+01 2.8011935840000000e+01 0 0 0
4260 2647 2 0.0000000000000000e+00 5.4839586859999997e+01 6.1208740100000000e+01 3.0487560259999999e+01 0 0 0
4149 2636 2 0.0000000000000000e+00 4.6364954720000000e+01 6.4867386460000006e+01 2.6924323890000000e+01 0 0 0
4151 2636 2 0.0000000000000000e+00 4.5155606990000003e+01 6.4653411410000004e+01 2.6012742899999999e+01 0 0 0
4292 2651 2 0.0000000000000000e+00 5.8021076669999999e+01 6.7676351260000004e+01 2.5535157590000001e+01 0 0 0
4289 2651 2 0.0000000000000000e+00 5.8153545070000000e+01 6.6677183350000007e+01 2.6687122909999999e+01 0 0 0
4291 2651 2 0.0000000000000000e+00 5.8377340240000002e+01 6.6437299650000000e+01 2.9163541720000001e+01 0 0 0
4294 2651 2 0.0000000000000000e+00 5.8244433610000002e+01 6.7436084449999996e+01 2.8012865900000001e+01 0 0 0
4296 2651 2 0.0000000000000000e+00 5.8468733020000002e+01 6.7196979010000007e+01 3.0488911920000000e+01 0 0 0
4217 2643 2 0.0000000000000000e+00 7.2097986660000004e+01 7.1014251979999997e+01 2.9237786260000000e+01 0 0 0
4219 2643 2 0.0000000000000000e+00 7.1466505530000006e+01 7.0344519660000003e+01 3.1560062909999999e+01 0 0 0
4222 2643 2 0.0000000000000000e+00 7.2619994480000003e+01 7.0786421570000002e+01 3.0658133830000001e+01 0 0 0
4086 2630 3 0.0000000000000000e+00 8.5061707949999999e+01 6.8827097050000006e+01 2.9753934610000002e+01 0 0 0
4089 2630 2 0.0000000000000000e+00 8.5019698000000005e+01 6.8051797149999999e+01 3.1072550589999999e+01 0 0 0
4229 2644 2 0.0000000000000000e+00 6.5343677209999996e+01 7.6122667350000000e+01 2.6884515720000000e+01 0 0 0
4230 2644 2 0.0000000000000000e+00 6.5150254480000001e+01 7.5241373379999999e+01 2.9214364539999998e+01 0 0 0
4231 2644 2 0.0000000000000000e+00 6.5931089929999999e+01 7.7235433920000006e+01 2.6015042300000001e+01 0 0 0
4232 2644 2 0.0000000000000000e+00 6.4957729099999995e+01 7.4360472009999995e+01 3.1544005150000000e+01 0 0 0
4233 2644 2 0.0000000000000000e+00 6.5738364340000004e+01 7.6354471899999993e+01 2.8343705610000001e+01 0 0 0
4235 2644 2 0.0000000000000000e+00 6.5545141079999993e+01 7.5473240329999996e+01 3.0674531779999999e+01 0 0 0
4216 2643 2 0.0000000000000000e+00 7.2730366730000000e+01 7.1683647480000005e+01 2.6915224729999998e+01 0 0 0
4218 2643 2 0.0000000000000000e+00 7.3883854970000002e+01 7.2125547630000000e+01 2.6013295509999999e+01 0 0 0
4220 2643 2 0.0000000000000000e+00 7.3252136480000004e+01 7.1455989579999994e+01 2.8334617080000001e+01 0 0 0
4104 2632 3 0.0000000000000000e+00 7.3195666099999997e+01 8.2984042630000005e+01 2.9599223370000001e+01 0 0 0
4107 2632 2 0.0000000000000000e+00 7.3503090720000003e+01 8.2748623499999994e+01 3.1079652639999999e+01 0 0 0
4130 2634 3 0.0000000000000000e+00 5.5030781230000002e+01 8.5129296879999998e+01 2.9552579730000001e+01 0 0 0
4133 2634 2 0.0000000000000000e+00 5.4974918789999997e+01 8.5121520810000007e+01 3.1081769640000001e+01 0 0 0
4117 2633 3 0.0000000000000000e+00 6.4300231299999993e+01 8.5788398720000004e+01 2.9561256310000001e+01 0 0 0
4120 2633 2 0.0000000000000000e+00 6.4473752869999998e+01 8.5762002109999997e+01 3.1081386680000001e+01 0 0 0
3891 2607 3 0.0000000000000000e+00 5.6226173930000002e+01 2.9068533320000000e+01 3.7938106920000003e+01 0 0 0
3894 2607 2 0.0000000000000000e+00 5.6284838720000003e+01 3.0596808100000001e+01 3.7887733269999998e+01 0 0 0
4046 2625 2 0.0000000000000000e+00 5.9313800260000001e+01 3.7147411880000000e+01 3.2503173760000003e+01 0 0 0
3909 2609 3 0.0000000000000000e+00 7.6152968840000000e+01 3.2462247200000000e+01 3.7625892559999997e+01 0 0 0
3912 2609 2 0.0000000000000000e+00 7.4875551180000002e+01 3.3258159229999997e+01 3.7902173259999998e+01 0 0 0
3873 2605 3 0.0000000000000000e+00 3.8118801050000002e+01 3.8521715540000002e+01 3.7777892620000003e+01 0 0 0
3876 2605 2 0.0000000000000000e+00 3.9539773730000000e+01 3.9077337860000000e+01 3.7895039269999998e+01 0 0 0
4047 2625 2 0.0000000000000000e+00 5.9405027470000000e+01 3.8843516139999998e+01 3.4335438730000000e+01 0 0 0
4049 2625 2 0.0000000000000000e+00 5.9496520709999999e+01 4.0539981089999998e+01 3.6166808230000001e+01 0 0 0
4050 2625 2 0.0000000000000000e+00 5.9063512350000003e+01 3.8612968920000000e+01 3.2861286810000003e+01 0 0 0
4051 2625 2 0.0000000000000000e+00 5.9588838010000003e+01 4.2237406600000000e+01 3.7998811619999998e+01 0 0 0
4052 2625 2 0.0000000000000000e+00 5.9154606110000003e+01 4.0310005050000001e+01 3.4693887480000001e+01 0 0 0
4054 2625 2 0.0000000000000000e+00 5.9246368400000001e+01 4.2006831020000000e+01 3.6524364700000000e+01 0 0 0
4061 2626 6 4.0000000000000002e-01 6.6509576269999997e+01 4.4027586679999999e+01 3.7849217650000000e+01 0 0 0
4064 2627 2 0.0000000000000000e+00 7.6949250449999994e+01 4.3285605969999999e+01 3.2154249989999997e+01 0 0 0
4065 2627 2 0.0000000000000000e+00 7.5808398479999994e+01 4.4412826650000000e+01 3.4070005000000002e+01 0 0 0
4068 2627 2 0.0000000000000000e+00 7.5654741580000007e+01 4.3365283200000000e+01 3.2964586189999999e+01 0 0 0
4070 2627 2 0.0000000000000000e+00 7.4513093940000005e+01 4.4492630519999999e+01 3.4880932610000002e+01 0 0 0
3860 2604 3 0.0000000000000000e+00 3.2371182699999999e+01 4.6900811339999997e+01 3.7519084849999999e+01 0 0 0
3863 2604 2 0.0000000000000000e+00 3.3834781839999998e+01 4.6679339499999998e+01 3.7906938730000000e+01 0 0 0
4038 2623 6 4.0000000000000002e-01 4.7672919630000003e+01 4.8994255170000002e+01 3.8128306610000003e+01 0 0 0
4043 2624 6 4.0000000000000002e-01 5.3273697509999998e+01 4.5043015009999998e+01 3.7944240440000002e+01 0 0 0
4170 2638 2 0.0000000000000000e+00 5.3046263260000003e+01 4.9888332089999999e+01 3.1848075569999999e+01 0 0 0
4172 2638 2 0.0000000000000000e+00 5.3803698550000000e+01 5.0821982839999997e+01 3.4039102800000002e+01 0 0 0
4175 2638 2 0.0000000000000000e+00 5.4141772830000001e+01 5.0692929149999998e+01 3.2551320830000002e+01 0 0 0
4183 2639 2 0.0000000000000000e+00 6.1146162480000001e+01 4.7279201550000003e+01 3.1809239999999999e+01 0 0 0
4185 2639 2 0.0000000000000000e+00 6.1052965159999999e+01 4.8445240429999998e+01 3.4017786999999998e+01 0 0 0
4187 2639 2 0.0000000000000000e+00 6.0958987380000003e+01 4.9610284340000000e+01 3.6226971429999999e+01 0 0 0
4188 2639 2 0.0000000000000000e+00 6.0455127849999997e+01 4.8385658679999999e+01 3.2609424539999999e+01 0 0 0
4190 2639 2 0.0000000000000000e+00 6.0362841220000000e+01 4.9552078710000004e+01 3.4818114469999998e+01 0 0 0
4191 2639 2 0.0000000000000000e+00 6.0268337889999998e+01 5.0716046810000002e+01 3.7026547729999997e+01 0 0 0
4196 2640 2 0.0000000000000000e+00 6.8838556589999996e+01 4.9725900369999998e+01 3.1693849740000001e+01 0 0 0
4198 2640 2 0.0000000000000000e+00 6.8142309800000007e+01 5.0530118010000002e+01 3.3955372830000002e+01 0 0 0
4200 2640 2 0.0000000000000000e+00 6.7446921020000005e+01 5.1333465259999997e+01 3.6217611239999997e+01 0 0 0
4201 2640 2 0.0000000000000000e+00 6.7766648570000001e+01 4.9622040020000000e+01 3.2781184910000000e+01 0 0 0
4203 2640 2 0.0000000000000000e+00 6.7070309929999993e+01 5.0427247580000000e+01 3.5042626270000000e+01 0 0 0
4204 2640 2 0.0000000000000000e+00 6.6375652509999995e+01 5.1229599749999998e+01 3.7304177090000003e+01 0 0 0
4067 2627 2 0.0000000000000000e+00 7.4666940659999995e+01 4.5539859960000001e+01 3.5984985049999999e+01 0 0 0
4069 2627 2 0.0000000000000000e+00 7.3524676389999996e+01 4.6667997470000003e+01 3.7900331059999999e+01 0 0 0
4072 2627 2 0.0000000000000000e+00 7.3371030619999999e+01 4.5619480660000001e+01 3.6795138880000003e+01 0 0 0
3927 2611 3 0.0000000000000000e+00 8.9869255530000004e+01 4.6529585419999997e+01 3.7194859800000003e+01 0 0 0
3930 2611 2 0.0000000000000000e+00 8.8581626420000006e+01 4.6136120730000002e+01 3.7922045939999997e+01 0 0 0
4023 2622 2 0.0000000000000000e+00 3.8463307159999999e+01 5.4857701259999999e+01 3.2090811469999998e+01 0 0 0
4024 2622 2 0.0000000000000000e+00 4.0019539309999999e+01 5.5165150369999999e+01 3.4021071429999999e+01 0 0 0
4026 2622 2 0.0000000000000000e+00 4.1575326799999999e+01 5.5471702469999997e+01 3.5951312270000003e+01 0 0 0
4027 2622 2 0.0000000000000000e+00 3.9496594880000004e+01 5.4168887130000002e+01 3.2983334880000001e+01 0 0 0
4028 2622 2 0.0000000000000000e+00 4.3131224850000002e+01 5.5778171890000003e+01 3.7882961840000000e+01 0 0 0
4029 2622 2 0.0000000000000000e+00 4.1053514010000001e+01 5.4475982199999997e+01 3.4914228549999997e+01 0 0 0
4031 2622 2 0.0000000000000000e+00 4.2608856160000002e+01 5.4781639679999998e+01 3.6844453880000003e+01 0 0 0
4161 2637 5 -6.8500000000000005e-01 4.9942705029999999e+01 5.6823549989999997e+01 3.5042079549999997e+01 0 0 0
4162 2637 2 0.0000000000000000e+00 5.0518994499999998e+01 5.7707734780000003e+01 3.7200331060000003e+01 0 0 0
4163 2637 2 0.0000000000000000e+00 5.0746497929999997e+01 5.6587210970000001e+01 3.6195123950000003e+01 0 0 0
4164 2637 6 4.0000000000000002e-01 5.0111190229999998e+01 5.6092486819999998e+01 3.4423772790000001e+01 0 0 0
4174 2638 2 0.0000000000000000e+00 5.4560282770000001e+01 5.1756764680000003e+01 3.6230088469999998e+01 0 0 0
4177 2638 2 0.0000000000000000e+00 5.4899309299999999e+01 5.1625795240000002e+01 3.4742955629999997e+01 0 0 0
4178 2638 2 0.0000000000000000e+00 5.5655135199999997e+01 5.2560849490000003e+01 3.6932780010000002e+01 0 0 0
4270 2648 2 0.0000000000000000e+00 6.0212432769999999e+01 5.5904210849999998e+01 3.1639391830000001e+01 0 0 0
4272 2648 2 0.0000000000000000e+00 6.0216665829999997e+01 5.6221594650000000e+01 3.4118485329999999e+01 0 0 0
4274 2648 4 0.0000000000000000e+00 6.0312399050000003e+01 5.6703886070000003e+01 3.6807444930000003e+01 0 0 0
4275 2648 2 0.0000000000000000e+00 5.9720592420000003e+01 5.5336016800000003e+01 3.2972483969999999e+01 0 0 0
4276 2648 2 0.0000000000000000e+00 5.9725508640000001e+01 5.5652794110000002e+01 3.5450498910000000e+01 0 0 0
4079 2628 6 4.0000000000000002e-01 7.7088931079999995e+01 5.2257652010000001e+01 3.7928017629999999e+01 0 0 0
4205 2641 5 -6.8500000000000005e-01 7.2405505460000001e+01 5.6036363860000002e+01 3.5039111060000003e+01 0 0 0
4206 2641 2 0.0000000000000000e+00 7.2085806070000004e+01 5.6633203850000001e+01 3.7344217610000001e+01 0 0 0
4207 2641 2 0.0000000000000000e+00 7.1423606509999999e+01 5.6133589370000003e+01 3.6067640210000000e+01 0 0 0
4208 2641 6 4.0000000000000002e-01 7.1950672400000002e+01 5.5716530349999999e+01 3.4241629230000001e+01 0 0 0
4010 2621 2 0.0000000000000000e+00 3.7988655399999999e+01 6.3917687630000003e+01 3.1859233249999999e+01 0 0 0
4011 2621 2 0.0000000000000000e+00 3.9478809079999998e+01 6.3636268479999998e+01 3.3844814319999998e+01 0 0 0
4013 2621 2 0.0000000000000000e+00 4.0968019939999998e+01 6.3354552069999997e+01 3.5830554870000000e+01 0 0 0
4014 2621 2 0.0000000000000000e+00 3.8323217300000003e+01 6.3020812169999999e+01 3.3051889590000002e+01 0 0 0
4015 2621 2 0.0000000000000000e+00 4.2457373640000000e+01 6.3073128050000001e+01 3.7817672969999997e+01 0 0 0
4016 2621 2 0.0000000000000000e+00 3.9813669189999999e+01 6.2738877860000002e+01 3.5038273519999997e+01 0 0 0
4018 2621 2 0.0000000000000000e+00 4.1301938710000002e+01 6.2456867330000001e+01 3.7024176199999999e+01 0 0 0
4154 2636 2 0.0000000000000000e+00 4.9008154519999998e+01 6.4010261709999995e+01 3.3885973079999999e+01 0 0 0
4156 2636 2 0.0000000000000000e+00 4.9889711740000003e+01 6.3723875210000003e+01 3.6207070799999997e+01 0 0 0
4157 2636 2 0.0000000000000000e+00 4.7797717970000001e+01 6.3795922460000000e+01 3.2973095039999997e+01 0 0 0
4159 2636 2 0.0000000000000000e+00 4.8678780449999998e+01 6.3511632550000002e+01 3.5294790949999999e+01 0 0 0
4160 2636 2 0.0000000000000000e+00 4.9560214029999997e+01 6.3224624460000001e+01 3.7614625269999998e+01 0 0 0
4257 2647 2 0.0000000000000000e+00 5.5794319090000002e+01 6.0890430940000002e+01 3.1641514300000001e+01 0 0 0
4259 2647 2 0.0000000000000000e+00 5.6108105639999998e+01 6.0996305149999998e+01 3.4118807910000001e+01 0 0 0
4261 2647 4 0.0000000000000000e+00 5.6599321770000003e+01 6.1043329620000002e+01 3.6807444930000003e+01 0 0 0
4262 2647 2 0.0000000000000000e+00 5.5154530160000000e+01 6.1316525530000000e+01 3.2964767719999998e+01 0 0 0
4263 2647 2 0.0000000000000000e+00 5.5467827669999998e+01 6.1421602649999997e+01 3.5441001460000003e+01 0 0 0
4277 2649 5 -6.8500000000000005e-01 6.6178586980000006e+01 5.8675692400000003e+01 3.2849918709999997e+01 0 0 0
4278 2649 2 0.0000000000000000e+00 6.6367066600000001e+01 5.9119301319999998e+01 3.5203560240000002e+01 0 0 0
4279 2649 2 0.0000000000000000e+00 6.5471680469999995e+01 5.8603654190000000e+01 3.4085452699999998e+01 0 0 0
4280 2649 6 4.0000000000000002e-01 6.5580386559999994e+01 5.8340890799999997e+01 3.2160565380000001e+01 0 0 0
4281 2649 4 0.0000000000000000e+00 6.5518843689999997e+01 5.9051362869999998e+01 3.6807444930000003e+01 0 0 0
4284 2650 2 0.0000000000000000e+00 6.5135466489999999e+01 6.4535901370000005e+01 3.4084518520000003e+01 0 0 0
4285 2650 6 4.0000000000000002e-01 6.5415453270000000e+01 6.4566381469999996e+01 3.2159231220000002e+01 0 0 0
4210 2642 5 -6.8500000000000005e-01 7.3512764770000004e+01 6.2954911279999997e+01 3.5040054730000001e+01 0 0 0
4211 2642 2 0.0000000000000000e+00 7.2813531920000003e+01 6.3364032299999998e+01 3.7301831759999999e+01 0 0 0
4212 2642 2 0.0000000000000000e+00 7.2726403340000005e+01 6.2426977559999997e+01 3.6105123870000000e+01 0 0 0
4213 2642 6 4.0000000000000002e-01 7.3434671789999996e+01 6.2335089670000002e+01 3.4295161100000001e+01 0 0 0
4084 2629 6 4.0000000000000002e-01 7.9431812760000000e+01 5.8761949680000001e+01 3.7997825700000000e+01 0 0 0
3948 2613 2 0.0000000000000000e+00 9.2388390560000005e+01 6.4574544029999998e+01 3.7938181219999997e+01 0 0 0
4246 2646 5 -6.8500000000000005e-01 5.1895047509999998e+01 6.9194202290000007e+01 3.5048019640000000e+01 0 0 0
4247 2646 2 0.0000000000000000e+00 5.2769956209999997e+01 6.7994018449999999e+01 3.6936414579999997e+01 0 0 0
4248 2646 2 0.0000000000000000e+00 5.2225954829999999e+01 6.9322103100000007e+01 3.6428451570000000e+01 0 0 0
4249 2646 6 4.0000000000000002e-01 5.1552852389999998e+01 7.0056373750000006e+01 3.4756975410000003e+01 0 0 0
4286 2650 4 0.0000000000000000e+00 6.4725279270000001e+01 6.4707153590000004e+01 3.6807444930000003e+01 0 0 0
4293 2651 2 0.0000000000000000e+00 5.8602063829999999e+01 6.6197328189999993e+01 3.1641025379999999e+01 0 0 0
4295 2651 2 0.0000000000000000e+00 5.8825420770000001e+01 6.5957061390000007e+01 3.4118733700000000e+01 0 0 0
4297 2651 4 0.0000000000000000e+00 5.9073843519999997e+01 6.5531160369999995e+01 3.6807444930000003e+01 0 0 0
4298 2651 2 0.0000000000000000e+00 5.8694316350000001e+01 6.6956523720000007e+01 3.2966543289999997e+01 0 0 0
4299 2651 2 0.0000000000000000e+00 5.8916746580000002e+01 6.6716344109999994e+01 3.5443187909999999e+01 0 0 0
4221 2643 2 0.0000000000000000e+00 7.0834888730000003e+01 6.9673686820000000e+01 3.3883219330000003e+01 0 0 0
4223 2643 2 0.0000000000000000e+00 7.0202746739999995e+01 6.9004118800000001e+01 3.6206736100000001e+01 0 0 0
4227 2643 2 0.0000000000000000e+00 7.0725413720000006e+01 6.8776124719999999e+01 3.7625844110000003e+01 0 0 0
4282 2650 5 -6.8500000000000005e-01 6.5270700890000001e+01 6.5235092039999998e+01 3.2849895240000002e+01 0 0 0
4283 2650 2 0.0000000000000000e+00 6.4905052549999994e+01 6.5540920080000006e+01 3.5204616540000004e+01 0 0 0
4224 2643 2 0.0000000000000000e+00 7.1989409400000000e+01 7.0116349349999993e+01 3.2980126769999998e+01 0 0 0
4226 2643 2 0.0000000000000000e+00 7.1357420520000005e+01 6.9444594159999994e+01 3.5303206359999997e+01 0 0 0
4087 2630 2 0.0000000000000000e+00 8.3675876919999993e+01 6.8291471639999997e+01 3.1762469580000001e+01 0 0 0
4088 2630 2 0.0000000000000000e+00 8.2290330679999997e+01 6.7757052229999999e+01 3.3771684469999997e+01 0 0 0
4090 2630 2 0.0000000000000000e+00 8.0905329420000001e+01 6.7221860160000006e+01 3.5780569620000001e+01 0 0 0
4091 2630 2 0.0000000000000000e+00 8.3634824260000002e+01 6.7517068879999997e+01 3.3080559670000000e+01 0 0 0
4092 2630 2 0.0000000000000000e+00 7.9519369159999997e+01 6.6685769669999999e+01 3.7789980839999998e+01 0 0 0
4093 2630 2 0.0000000000000000e+00 8.2249152069999994e+01 6.6982186479999996e+01 3.5090651289999997e+01 0 0 0
4095 2630 2 0.0000000000000000e+00 8.0864691460000003e+01 6.6446221120000004e+01 3.7099206860000002e+01 0 0 0
3945 2613 3 0.0000000000000000e+00 9.2954742199999998e+01 6.5482521550000001e+01 3.6844368850000002e+01 0 0 0
3837 2601 3 0.0000000000000000e+00 3.2763857729999998e+01 7.5281244330000007e+01 3.6748855239999997e+01 0 0 0
3840 2601 2 0.0000000000000000e+00 3.2976770139999999e+01 7.4347627279999998e+01 3.7942434050000003e+01 0 0 0
4241 2645 5 -6.8500000000000005e-01 5.7739880569999997e+01 7.3086050279999995e+01 3.5044982070000003e+01 0 0 0
4242 2645 2 0.0000000000000000e+00 5.7498345380000004e+01 7.1827702029999998e+01 3.7077262150000003e+01 0 0 0
4236 2644 2 0.0000000000000000e+00 6.4572575720000003e+01 7.2597479870000001e+01 3.6205426400000000e+01 0 0 0
4243 2645 2 0.0000000000000000e+00 5.8353788639999998e+01 7.2821551540000002e+01 3.6303794160000002e+01 0 0 0
4244 2645 6 4.0000000000000002e-01 5.8309821820000003e+01 7.3720945259999993e+01 3.4578914259999998e+01 0 0 0
4110 2632 2 0.0000000000000000e+00 7.0596887199999998e+01 7.7825396940000005e+01 3.7754930819999998e+01 0 0 0
4234 2644 2 0.0000000000000000e+00 6.4765798970000006e+01 7.3478711430000004e+01 3.3874600219999998e+01 0 0 0
4237 2644 2 0.0000000000000000e+00 6.5353513039999996e+01 7.4592727379999999e+01 3.3003965440000002e+01 0 0 0
4239 2644 2 0.0000000000000000e+00 6.5161976039999999e+01 7.3710050330000001e+01 3.5334535879999997e+01 0 0 0
4240 2644 2 0.0000000000000000e+00 6.4968158480000000e+01 7.2829676280000001e+01 3.7664408479999999e+01 0 0 0
3958 2614 3 0.0000000000000000e+00 9.0192967319999994e+01 7.4673917970000005e+01 3.6712226800000003e+01 0 0 0
3961 2614 2 0.0000000000000000e+00 8.9972011949999995e+01 7.3793644060000005e+01 3.7944257409999999e+01 0 0 0
3827 2600 2 0.0000000000000000e+00 3.8221167569999999e+01 8.2310692230000001e+01 3.7949164050000000e+01 0 0 0
3824 2600 3 0.0000000000000000e+00 3.8248423330000001e+01 8.3038136269999995e+01 3.6603175510000000e+01 0 0 0
4131 2634 2 0.0000000000000000e+00 5.5392083380000003e+01 8.3744436089999994e+01 3.1600323920000001e+01 0 0 0
4132 2634 2 0.0000000000000000e+00 5.5752148130000002e+01 8.2358897080000006e+01 3.3647986480000000e+01 0 0 0
4134 2634 2 0.0000000000000000e+00 5.6112490559999998e+01 8.0974314129999996e+01 3.5695756490000001e+01 0 0 0
4135 2634 2 0.0000000000000000e+00 5.5335266380000000e+01 8.3737048009999995e+01 3.3128546309999997e+01 0 0 0
4136 2634 2 0.0000000000000000e+00 5.6473789379999999e+01 7.9589342560000006e+01 3.7744494930000002e+01 0 0 0
4137 2634 2 0.0000000000000000e+00 5.5695324139999997e+01 8.2351399389999997e+01 3.5177202270000002e+01 0 0 0
4139 2634 2 0.0000000000000000e+00 5.6055947400000001e+01 8.0967769520000004e+01 3.7225080390000002e+01 0 0 0
4118 2633 2 0.0000000000000000e+00 6.4151550369999995e+01 8.4362369479999998e+01 3.1607220519999998e+01 0 0 0
4119 2633 2 0.0000000000000000e+00 6.4001465679999995e+01 8.2936443580000002e+01 3.3653313580000003e+01 0 0 0
4121 2633 2 0.0000000000000000e+00 6.3852143290000001e+01 8.1511166750000001e+01 3.5699423889999998e+01 0 0 0
4122 2633 2 0.0000000000000000e+00 6.4324348749999999e+01 8.4336847570000003e+01 3.3126508440000002e+01 0 0 0
4123 2633 2 0.0000000000000000e+00 6.3703545409999997e+01 8.0085013680000003e+01 3.7746377330000001e+01 0 0 0
4124 2633 2 0.0000000000000000e+00 6.4174344579999996e+01 8.2910800809999998e+01 3.5173590339999997e+01 0 0 0
4126 2633 2 0.0000000000000000e+00 6.4025785589999998e+01 8.1486168840000005e+01 3.7219718270000001e+01 0 0 0
4108 2632 2 0.0000000000000000e+00 7.1246187649999996e+01 7.9115674569999996e+01 3.5715419890000000e+01 0 0 0
4105 2632 2 0.0000000000000000e+00 7.2546247609999995e+01 8.1693992550000004e+01 3.1637767300000000e+01 0 0 0
4106 2632 2 0.0000000000000000e+00 7.1895724070000000e+01 8.0404761399999998e+01 3.3676636870000003e+01 0 0 0
4109 2632 2 0.0000000000000000e+00 7.2853436590000001e+01 8.1459762170000005e+01 3.3117469130000003e+01 0 0 0
4111 2632 2 0.0000000000000000e+00 7.2203030540000000e+01 8.0170307359999995e+01 3.5157305680000000e+01 0 0 0
4113 2632 2 0.0000000000000000e+00 7.1554479920000006e+01 7.8881360670000007e+01 3.7196002350000001e+01 0 0 0
3987 2618 2 0.0000000000000000e+00 5.9396992400000002e+01 9.0982283620000004e+01 3.8108565149999997e+01 0 0 0
3986 2618 3 0.0000000000000000e+00 5.9272960449999999e+01 9.2863181929999996e+01 3.6468908919999997e+01 0 0 0
3989 2618 2 0.0000000000000000e+00 5.9291745870000000e+01 9.2500424219999999e+01 3.7955400370000000e+01 0 0 0
3892 2607 2 0.0000000000000000e+00 5.6532672689999998e+01 3.1144276479999998e+01 3.9294198289999997e+01 0 0 0
3893 2607 2 0.0000000000000000e+00 5.6837845129999998e+01 3.3220053620000002e+01 4.0650777069999997e+01 0 0 0
3895 2607 2 0.0000000000000000e+00 5.7143440159999997e+01 3.5295877150000003e+01 4.2006449220000000e+01 0 0 0
3896 2607 2 0.0000000000000000e+00 5.6590380400000001e+01 3.2671636489999997e+01 3.9243329619999997e+01 0 0 0
3897 2607 2 0.0000000000000000e+00 5.7449994050000001e+01 3.7372616239999999e+01 4.3362617250000000e+01 0 0 0
3898 2607 2 0.0000000000000000e+00 5.6895604480000003e+01 3.4748408920000003e+01 4.0599983389999998e+01 0 0 0
3900 2607 2 0.0000000000000000e+00 5.7201624799999998e+01 3.6824279420000003e+01 4.1954752300000003e+01 0 0 0
3910 2609 2 0.0000000000000000e+00 7.5127047709999999e+01 3.4246666099999999e+01 3.9041862180000003e+01 0 0 0
3911 2609 2 0.0000000000000000e+00 7.4100883429999996e+01 3.6030245739999998e+01 4.0458942800000003e+01 0 0 0
3913 2609 2 0.0000000000000000e+00 7.3074413899999996e+01 3.7813844050000000e+01 4.1875069910000001e+01 0 0 0
3914 2609 2 0.0000000000000000e+00 7.3849860070000005e+01 3.5041187330000000e+01 3.9318039990000003e+01 0 0 0
3916 2609 2 0.0000000000000000e+00 7.2822916320000004e+01 3.6825335619999997e+01 4.0735381289999999e+01 0 0 0
3874 2605 2 0.0000000000000000e+00 3.9654181790000003e+01 3.9921412959999998e+01 3.9165368039999997e+01 0 0 0
3875 2605 2 0.0000000000000000e+00 4.1189082769999999e+01 4.1322348669999997e+01 4.0552359430000003e+01 0 0 0