3073
Atoms. Timestep: 96
1 -4.085 -10.2125 -18.3825
1 -2.0425 -12.255 -18.3825
1 0 -12.255 -20.425
1 0 -10.2125 -18.3825
1 2.0425 -12.255 -18.3825
1 4.085 -10.2125 -18.3825
1 -6.1275 -8.17 -18.3825
1 -4.085 -6.1275 -18.3825
1 -2.0425 -8.17 -18.3825
1 0 -8.17 -20.425
1 0 -6.1275 -18.3825
1 2.0425 -8.17 -18.3825
1 4.085 -6.1275 -18.3825
1 6.1275 -8.17 -18.3825
1 -6.1275 -4.085 -18.3825
1 -4.085 -2.0425 -18.3825
1 -2.0425 -4.085 -18.3825
1 0 -4.085 -20.425
1 0 -2.0425 -18.3825
1 2.0425 -4.085 -18.3825
1 4.085 -2.0425 -18.3825
1 6.1275 -4.085 -18.3825
1 -6.1275 0 -18.3825
1 -4.085 2.0425 -18.3825
1 -2.0425 0 -18.3825
1 0 0 -20.425
1 0 2.0425 -18.3825
1 2.0425 0 -18.3825
1 4.085 2.0425 -18.3825
1 6.1275 0 -18.3825
1 -6.1275 4.085 -18.3825
1 -4.085 6.1275 -18.3825
1 -2.0425 4.085 -18.3825
1 0 4.085 -20.425
1 0 6.1275 -18.3825
1 2.0425 4.085 -18.3825
1 4.085 6.1275 -18.3825
1 6.1275 4.085 -18.3825
1 -6.1275 8.17 -18.3825
1 -4.085 10.2125 -18.3825
1 -2.0425 8.17 -18.3825
1 0 8.17 -20.425
1 0 10.2125 -18.3825
1 2.0425 8.17 -18.3825
1 4.085 10.2125 -18.3825
1 6.1275 8.17 -18.3825
1 -2.0425 12.255 -18.3825
1 0 12.255 -20.425
1 2.0425 12.255 -18.3825
1 -4.085 -14.2975 -14.2975
1 -2.0425 -14.2975 -16.34
1 0 -14.2975 -14.2975
1 2.0425 -14.2975 -16.34
1 4.085 -14.2975 -14.2975
1 -8.17 -10.2125 -14.2975
1 -6.1275 -12.255 -14.2975
1 -6.1275 -10.2125 -16.34
1 -4.085 -12.255 -16.34
1 -4.085 -10.2125 -14.2975
1 -2.0425 -12.255 -14.2975
1 -2.0425 -10.2125 -16.34
1 0 -12.255 -16.34
1 2.0425 -12.255 -14.2975
1 2.0425 -10.2125 -16.34
1 4.085 -12.255 -16.34
1 4.085 -10.2125 -14.2975
1 6.1275 -12.255 -14.2975
1 6.1275 -10.2125 -16.34
1 8.17 -10.2125 -14.2975
1 -12.255 -6.1275 -14.2975
1 -10.2125 -8.17 -14.2975
1 -10.2125 -6.1275 -16.34
1 -8.17 -8.17 -16.34
1 -8.17 -6.1275 -14.2975
1 -6.1275 -8.17 -14.2975
1 -6.1275 -6.1275 -16.34
1 -4.085 -8.17 -16.34
1 -2.0425 -6.1275 -16.34
1 0 -8.17 -16.34
1 2.0425 -6.1275 -16.34
1 4.085 -8.17 -16.34
1 6.1275 -8.17 -14.2975
1 6.1275 -6.1275 -16.34
1 8.17 -8.17 -16.34
1 8.17 -6.1275 -14.2975
1 10.2125 -8.17 -14.2975
1 10.2125 -6.1275 -16.34
1 12.255 -6.1275 -14.2975
1 -16.34 -2.0425 -14.2975
1 -14.2975 -4.085 -14.2975
1 -12.255 -4.085 -16.34
1 -12.255 -2.0425 -14.2975
1 -10.2125 -4.085 -14.2975
1 -10.2125 -2.0425 -16.34
1 -8.17 -4.085 -16.34
1 -8.17 -2.0425 -14.2975
1 -6.1275 -4.085 -14.2975
1 -6.1275 -2.0425 -16.34
1 -4.085 -4.085 -16.34
1 -2.0425 -2.0425 -16.34
1 0 -4.085 -16.34
1 2.0425 -2.0425 -16.34
1 4.085 -4.085 -16.34
1 6.1275 -4.085 -14.2975
1 6.1275 -2.0425 -16.34
1 8.17 -4.085 -16.34
1 8.17 -2.0425 -14.2975
1 10.2125 -4.085 -14.2975
1 10.2125 -2.0425 -16.34
1 12.255 -4.085 -16.34
1 12.255 -2.0425 -14.2975
1 14.2975 -4.085 -14.2975
1 16.34 -2.0425 -14.2975
1 -16.34 2.0425 -14.2975
1 -14.2975 0 -14.2975
1 -12.255 0 -16.34
1 -12.255 2.0425 -14.2975
1 -10.2125 0 -14.2975
1 -10.2125 2.0425 -16.34
1 -8.17 0 -16.34
1 -8.17 2.0425 -14.2975
1 -6.1275 0 -14.2975
1 -6.1275 2.0425 -16.34
1 -4.085 0 -16.34
1 -2.0425 2.0425 -16.34
1 0 0 -16.34
1 2.0425 2.0425 -16.34
1 4.085 0 -16.34
1 6.1275 0 -14.2975
1 6.1275 2.0425 -16.34
1 8.17 0 -16.34
1 8.17 2.0425 -14.2975
1 10.2125 0 -14.2975
1 10.2125 2.0425 -16.34
1 12.255 0 -16.34
1 12.255 2.0425 -14.2975
1 14.2975 0 -14.2975
1 16.34 2.0425 -14.2975
1 -14.2975 4.085 -14.2975
1 -12.255 4.085 -16.34
1 -12.255 6.1275 -14.2975
1 -10.2125 4.085 -14.2975
1 -10.2125 6.1275 -16.34
1 -8.17 4.085 -16.34
1 -8.17 6.1275 -14.2975
1 -6.1275 4.085 -14.2975
1 -6.1275 6.1275 -16.34
1 -4.085 4.085 -16.34
1 -2.0425 6.1275 -16.34
1 0 4.085 -16.34
1 2.0425 6.1275 -16.34
1 4.085 4.085 -16.34
1 6.1275 4.085 -14.2975
1 6.1275 6.1275 -16.34
1 8.17 4.085 -16.34
1 8.17 6.1275 -14.2975
1 10.2125 4.085 -14.2975
1 10.2125 6.1275 -16.34
1 12.255 4.085 -16.34
1 12.255 6.1275 -14.2975
1 14.2975 4.085 -14.2975
1 -10.2125 8.17 -14.2975
1 -8.17 8.17 -16.34
1 -8.17 10.2125 -14.2975
1 -6.1275 8.17 -14.2975
1 -6.1275 10.2125 -16.34
1 -4.085 8.17 -16.34
1 -4.085 10.2125 -14.2975
1 -2.0425 10.2125 -16.34
1 0 8.17 -16.34
1 2.0425 10.2125 -16.34
1 4.085 8.17 -16.34
1 4.085 10.2125 -14.2975
1 6.1275 8.17 -14.2975
1 6.1275 10.2125 -16.34
1 8.17 8.17 -16.34
1 8.17 10.2125 -14.2975
1 10.2125 8.17 -14.2975
1 -6.1275 12.255 -14.2975
1 -4.085 12.255 -16.34
1 -4.085 14.2975 -14.2975
1 -2.0425 12.255 -14.2975
1 -2.0425 14.2975 -16.34
1 0 12.255 -16.34
1 0 14.2975 -14.2975
1 2.0425 12.255 -14.2975
1 2.0425 14.2975 -16.34
1 4.085 12.255 -16.34
1 4.085 14.2975 -14.2975
1 6.1275 12.255 -14.2975
1 -8.17 -14.2975 -10.2125
1 -6.1275 -16.34 -10.2125
1 -6.1275 -14.2975 -12.255
1 -4.085 -16.34 -12.255
1 -4.085 -14.2975 -10.2125
1 -2.0425 -16.34 -10.2125
1 -2.0425 -14.2975 -12.255
1 0 -16.34 -12.255
1 0 -14.2975 -10.2125
1 2.0425 -16.34 -10.2125
1 2.0425 -14.2975 -12.255
1 4.085 -16.34 -12.255
1 4.085 -14.2975 -10.2125
1 6.1275 -16.34 -10.2125
1 6.1275 -14.2975 -12.255
1 8.17 -14.2975 -10.2125
1 -12.255 -10.2125 -10.2125
1 -10.2125 -12.255 -10.2125
1 -10.2125 -10.2125 -12.255
1 -8.17 -12.255 -12.255
1 -8.17 -10.2125 -10.2125
1 -6.1275 -12.255 -10.2125
1 -6.1275 -10.2125 -12.255
1 -4.085 -12.255 -12.255
1 0 -12.255 -12.255
1 4.085 -12.255 -12.255
1 6.1275 -12.255 -10.2125
1 6.1275 -10.2125 -12.255
1 8.17 -12.255 -12.255
1 8.17 -10.2125 -10.2125
1 10.2125 -12.255 -10.2125
1 10.2125 -10.2125 -12.255
1 12.255 -10.2125 -10.2125
1 -16.34 -6.1275 -10.2125
1 -14.2975 -8.17 -10.2125
1 -14.2975 -6.1275 -12.255
1 -12.255 -8.17 -12.255
1 -12.255 -6.1275 -10.2125
1 -10.2125 -8.17 -10.2125
1 -10.2125 -6.1275 -12.255
1 -8.17 -8.17 -12.255
1 8.17 -8.17 -12.255
1 10.2125 -8.17 -10.2125
1 10.2125 -6.1275 -12.255
1 12.255 -8.17 -12.255
1 12.255 -6.1275 -10.2125
1 14.2975 -8.17 -10.2125
1 14.2975 -6.1275 -12.255
1 16.34 -6.1275 -10.2125
1 -18.3825 -4.085 -10.2125
1 -18.3825 -2.0425 -12.255
1 -16.34 -4.085 -12.255
1 -16.34 -2.0425 -10.2125
1 -14.2975 -4.085 -10.2125
1 -14.2975 -2.0425 -12.255
1 -12.255 -4.085 -12.255
1 12.255 -4.085 -12.255
1 14.2975 -4.085 -10.2125
1 14.2975 -2.0425 -12.255
1 16.34 -4.085 -12.255
1 16.34 -2.0425 -10.2125
1 18.3825 -4.085 -10.2125
1 18.3825 -2.0425 -12.255
1 -20.425 0 -12.255
1 -18.3825 0 -10.2125
1 -18.3825 2.0425 -12.255
1 -16.34 0 -12.255
1 -16.34 2.0425 -10.2125
1 -14.2975 2.0425 -12.255
1 -12.255 0 -12.255
1 12.255 0 -12.255
1 14.2975 2.0425 -12.255
1 16.34 0 -12.255
1 16.34 2.0425 -10.2125
1 18.3825 0 -10.2125
1 18.3825 2.0425 -12.255
1 20.425 0 -12.255
1 -18.3825 4.085 -10.2125
1 -16.34 4.085 -12.255
1 -16.34 6.1275 -10.2125
1 -14.2975 4.085 -10.2125
1 -14.2975 6.1275 -12.255
1 -12.255 4.085 -12.255
1 -12.255 6.1275 -10.2125
1 -10.2125 6.1275 -12.255
1 10.2125 6.1275 -12.255
1 12.255 4.085 -12.255
1 12.255 6.1275 -10.2125
1 14.2975 4.085 -10.2125
1 14.2975 6.1275 -12.255
1 16.34 4.085 -12.255
1 16.34 6.1275 -10.2125
1 18.3825 4.085 -10.2125
1 -14.2975 8.17 -10.2125
1 -12.255 8.17 -12.255
1 -12.255 10.2125 -10.2125
1 -10.2125 8.17 -10.2125
1 -10.2125 10.2125 -12.255
1 -8.17 8.17 -12.255
1 -8.17 10.2125 -10.2125
1 -6.1275 10.2125 -12.255
1 6.1275 10.2125 -12.255
1 8.17 8.17 -12.255
1 8.17 10.2125 -10.2125
1 10.2125 8.17 -10.2125
1 10.2125 10.2125 -12.255
1 12.255 8.17 -12.255
1 12.255 10.2125 -10.2125
1 14.2975 8.17 -10.2125
1 -10.2125 12.255 -10.2125
1 -8.17 12.255 -12.255
1 -8.17 14.2975 -10.2125
1 -6.1275 12.255 -10.2125
1 -6.1275 14.2975 -12.255
1 -4.085 12.255 -12.255
1 -4.085 14.2975 -10.2125
1 -2.0425 14.2975 -12.255
1 0 12.255 -12.255
1 0 14.2975 -10.2125
1 2.0425 14.2975 -12.255
1 4.085 12.255 -12.255
1 4.085 14.2975 -10.2125
1 6.1275 12.255 -10.2125
1 6.1275 14.2975 -12.255
1 8.17 12.255 -12.255
1 8.17 14.2975 -10.2125
1 10.2125 12.255 -10.2125
1 -6.1275 16.34 -10.2125
1 -4.085 16.34 -12.255
1 -2.0425 16.34 -10.2125
1 0 16.34 -12.255
1 2.0425 16.34 -10.2125
1 4.085 16.34 -12.255
1 6.1275 16.34 -10.2125
1 -8.17 -18.3825 -6.1275
1 -4.085 -18.3825 -6.1275
1 0 -18.3825 -6.1275
1 4.085 -18.3825 -6.1275
1 8.17 -18.3825 -6.1275
1 -12.255 -14.2975 -6.1275
1 -10.2125 -16.34 -6.1275
1 -10.2125 -14.2975 -8.17
1 -8.17 -16.34 -8.17
1 -8.17 -14.2975 -6.1275
1 -6.1275 -16.34 -6.1275
1 -6.1275 -14.2975 -8.17
1 -4.085 -16.34 -8.17
1 -4.085 -14.2975 -6.1275
1 -2.0425 -16.34 -6.1275
1 -2.0425 -14.2975 -8.17
1 0 -16.34 -8.17
1 0 -14.2975 -6.1275
1 2.0425 -16.34 -6.1275
1 2.0425 -14.2975 -8.17
1 4.085 -16.34 -8.17
1 4.085 -14.2975 -6.1275
1 6.1275 -16.34 -6.1275
1 6.1275 -14.2975 -8.17
1 8.17 -16.34 -8.17
1 8.17 -14.2975 -6.1275
1 10.2125 -16.34 -6.1275
1 10.2125 -14.2975 -8.17
1 12.255 -14.2975 -6.1275
1 -16.34 -10.2125 -6.1275
1 -14.2975 -12.255 -6.1275
1 -14.2975 -10.2125 -8.17
1 -12.255 -12.255 -8.17
1 -12.255 -10.2125 -6.1275
1 -10.2125 -12.255 -6.1275
1 -10.2125 -10.2125 -8.17
1 -8.17 -12.255 -8.17
1 8.17 -12.255 -8.17
1 10.2125 -12.255 -6.1275
1 10.2125 -10.2125 -8.17
1 12.255 -12.255 -8.17
1 12.255 -10.2125 -6.1275
1 14.2975 -12.255 -6.1275
1 14.2975 -10.2125 -8.17
1 16.34 -10.2125 -6.1275
1 -18.3825 -6.1275 -8.17
1 -16.34 -8.17 -8.17
1 -16.34 -6.1275 -6.1275
1 -14.2975 -8.17 -6.1275
1 -14.2975 -6.1275 -8.17
1 -12.255 -8.17 -8.17
1 12.255 -8.17 -8.17
1 14.2975 -8.17 -6.1275
1 14.2975 -6.1275 -8.17
1 16.34 -8.17 -8.17
1 16.34 -6.1275 -6.1275
1 18.3825 -6.1275 -8.17
1 -18.3825 -4.085 -6.1275
1 -18.3825 -2.0425 -8.17
1 -16.34 -4.085 -8.17
1 -16.34 -2.0425 -6.1275
1 16.34 -4.085 -8.17
1 16.34 -2.0425 -6.1275
1 18.3825 -4.085 -6.1275
1 18.3825 -2.0425 -8.17
1 -20.425 0 -8.17
1 -18.3825 0 -6.1275
1 -18.3825 2.0425 -8.17
1 -16.34 0 -8.17
1 -16.34 2.0425 -6.1275
1 16.34 0 -8.17
1 16.34 2.0425 -6.1275
1 18.3825 0 -6.1275
1 18.3825 2.0425 -8.17
1 20.425 0 -8.17
1 -18.3825 4.085 -6.1275
1 -18.3825 6.1275 -8.17
1 -16.34 4.085 -8.17
1 -16.34 6.1275 -6.1275
1 -14.2975 6.1275 -8.17
1 14.2975 6.1275 -8.17
1 16.34 4.085 -8.17
1 16.34 6.1275 -6.1275
1 18.3825 4.085 -6.1275
1 18.3825 6.1275 -8.17
1 -16.34 8.17 -8.17
1 -16.34 10.2125 -6.1275
1 -14.2975 8.17 -6.1275
1 -14.2975 10.2125 -8.17
1 -12.255 8.17 -8.17
1 -12.255 10.2125 -6.1275
1 -10.2125 10.2125 -8.17
1 10.2125 10.2125 -8.17
1 12.255 8.17 -8.17
1 12.255 10.2125 -6.1275
1 14.2975 8.17 -6.1275
1 14.2975 10.2125 -8.17
1 16.34 8.17 -8.17
1 16.34 10.2125 -6.1275
1 -14.2975 12.255 -6.1275
1 -12.255 12.255 -8.17
1 -12.255 14.2975 -6.1275
1 -10.2125 12.255 -6.1275
1 -10.2125 14.2975 -8.17
1 -8.17 12.255 -8.17
1 -8.17 14.2975 -6.1275
1 -6.1275 14.2975 -8.17
1 -4.085 14.2975 -6.1275
1 -2.0425 14.2975 -8.17
1 0 14.2975 -6.1275
1 2.0425 14.2975 -8.17
1 4.085 14.2975 -6.1275
1 6.1275 14.2975 -8.17
1 8.17 12.255 -8.17
1 8.17 14.2975 -6.1275
1 10.2125 12.255 -6.1275
1 10.2125 14.2975 -8.17
1 12.255 12.255 -8.17
1 12.255 14.2975 -6.1275
1 14.2975 12.255 -6.1275
1 -10.2125 16.34 -6.1275
1 -8.17 16.34 -8.17
1 -8.17 18.3825 -6.1275
1 -6.1275 16.34 -6.1275
1 -4.085 16.34 -8.17
1 -4.085 18.3825 -6.1275
1 -2.0425 16.34 -6.1275
1 0 16.34 -8.17
1 0 18.3825 -6.1275
1 2.0425 16.34 -6.1275
1 4.085 16.34 -8.17
1 4.085 18.3825 -6.1275
1 6.1275 16.34 -6.1275
1 8.17 16.34 -8.17
1 8.17 18.3825 -6.1275
1 10.2125 16.34 -6.1275
1 -12.255 -18.3825 -2.0425
1 -10.2125 -18.3825 -4.085
1 -8.17 -18.3825 -2.0425
1 -6.1275 -18.3825 -4.085
1 -4.085 -18.3825 -2.0425
1 -2.0425 -18.3825 -4.085
1 0 -18.3825 -2.0425
1 2.0425 -18.3825 -4.085
1 4.085 -18.3825 -2.0425
1 6.1275 -18.3825 -4.085
1 8.17 -18.3825 -2.0425
1 10.2125 -18.3825 -4.085
1 12.255 -18.3825 -2.0425
1 -14.2975 -16.34 -2.0425
1 -14.2975 -14.2975 -4.085
1 -12.255 -16.34 -4.085
1 -12.255 -14.2975 -2.0425
1 -10.2125 -16.34 -2.0425
1 -10.2125 -14.2975 -4.085
1 -8.17 -16.34 -4.085
1 -6.1275 -16.34 -2.0425
1 -4.085 -16.34 -4.085
1 -2.0425 -16.34 -2.0425
1 0 -16.34 -4.085
1 2.0425 -16.34 -2.0425
1 4.085 -16.34 -4.085
1 6.1275 -16.34 -2.0425
1 8.17 -16.34 -4.085
1 10.2125 -16.34 -2.0425
1 10.2125 -14.2975 -4.085
1 12.255 -16.34 -4.085
1 12.255 -14.2975 -2.0425
1 14.2975 -16.34 -2.0425
1 14.2975 -14.2975 -4.085
1 -16.34 -12.255 -4.085
1 -16.34 -10.2125 -2.0425
1 -14.2975 -12.255 -2.0425
1 -14.2975 -10.2125 -4.085
1 -12.255 -12.255 -4.085
1 12.255 -12.255 -4.085
1 14.2975 -12.255 -2.0425
1 14.2975 -10.2125 -4.085
1 16.34 -12.255 -4.085
1 16.34 -10.2125 -2.0425
1 -18.3825 -6.1275 -4.085
1 -16.34 -8.17 -4.085
1 -16.34 -6.1275 -2.0425
1 -14.2975 -8.17 -2.0425
1 -14.2975 -6.1275 -4.085
1 14.2975 -8.17 -2.0425
1 14.2975 -6.1275 -4.085
1 16.34 -8.17 -4.085
1 16.34 -6.1275 -2.0425
1 18.3825 -6.1275 -4.085
1 -18.3825 -4.085 -2.0425
1 -18.3825 -2.0425 -4.085
1 -16.34 -4.085 -4.085
1 -16.34 -2.0425 -2.0425
1 16.34 -4.085 -4.085
1 16.34 -2.0425 -2.0425
1 18.3825 -4.085 -2.0425
1 18.3825 -2.0425 -4.085
1 -20.425 0 -4.085
1 -18.3825 0 -2.0425
1 -18.3825 2.0425 -4.085
1 -16.34 0 -4.085
1 -16.34 2.0425 -2.0425
1 16.34 0 -4.085
1 16.34 2.0425 -2.0425
1 18.3825 0 -2.0425
1 18.3825 2.0425 -4.085
1 20.425 0 -4.085
1 -18.3825 4.085 -2.0425
1 -18.3825 6.1275 -4.085
1 -16.34 4.085 -4.085
1 -16.34 6.1275 -2.0425
1 -14.2975 6.1275 -4.085
1 14.2975 6.1275 -4.085
1 16.34 4.085 -4.085
1 16.34 6.1275 -2.0425
1 18.3825 4.085 -2.0425
1 18.3825 6.1275 -4.085
1 -16.34 8.17 -4.085
1 -16.34 10.2125 -2.0425
1 -14.2975 8.17 -2.0425
1 -14.2975 10.2125 -4.085
1 14.2975 8.17 -2.0425
1 14.2975 10.2125 -4.085
1 16.34 8.17 -4.085
1 16.34 10.2125 -2.0425
1 -16.34 12.255 -4.085
1 -14.2975 12.255 -2.0425
1 -14.2975 14.2975 -4.085
1 -12.255 12.255 -4.085
1 -12.255 14.2975 -2.0425
1 -10.2125 14.2975 -4.085
1 10.2125 14.2975 -4.085
1 12.255 12.255 -4.085
1 12.255 14.2975 -2.0425
1 14.2975 12.255 -2.0425
1 14.2975 14.2975 -4.085
1 16.34 12.255 -4.085
1 -14.2975 16.34 -2.0425
1 -12.255 16.34 -4.085
1 -12.255 18.3825 -2.0425
1 -10.2125 16.34 -2.0425
1 -10.2125 18.3825 -4.085
1 -8.17 16.34 -4.085
1 -8.17 18.3825 -2.0425
1 -6.1275 16.34 -2.0425
1 -6.1275 18.3825 -4.085
1 -4.085 16.34 -4.085
1 -4.085 18.3825 -2.0425
1 -2.0425 16.34 -2.0425
1 -2.0425 18.3825 -4.085
1 0 16.34 -4.085
1 0 18.3825 -2.0425
1 2.0425 16.34 -2.0425
1 2.0425 18.3825 -4.085
1 4.085 16.34 -4.085
1 4.085 18.3825 -2.0425
1 6.1275 16.34 -2.0425
1 6.1275 18.3825 -4.085
1 8.17 16.34 -4.085
1 8.17 18.3825 -2.0425
1 10.2125 16.34 -2.0425
1 10.2125 18.3825 -4.085
1 12.255 16.34 -4.085
1 12.255 18.3825 -2.0425
1 14.2975 16.34 -2.0425
1 -12.255 -20.425 0
1 -12.255 -18.3825 2.0425
1 -10.2125 -18.3825 0
1 -8.17 -20.425 0
1 -8.17 -18.3825 2.0425
1 -6.1275 -18.3825 0
1 -4.085 -20.425 0
1 -4.085 -18.3825 2.0425
1 -2.0425 -18.3825 0
1 0 -20.425 0
1 0 -18.3825 2.0425
1 2.0425 -18.3825 0
1 4.085 -20.425 0
1 4.085 -18.3825 2.0425
1 6.1275 -18.3825 0
1 8.17 -20.425 0
1 8.17 -18.3825 2.0425
1 10.2125 -18.3825 0
1 12.255 -20.425 0
1 12.255 -18.3825 2.0425
1 -14.2975 -16.34 2.0425
1 -14.2975 -14.2975 0
1 -12.255 -16.34 0
1 -12.255 -14.2975 2.0425
1 -10.2125 -16.34 2.0425
1 -8.17 -16.34 0
1 -6.1275 -16.34 2.0425
1 -4.085 -16.34 0
1 -2.0425 -16.34 2.0425
1 0 -16.34 0
1 2.0425 -16.34 2.0425
1 4.085 -16.34 0
1 6.1275 -16.34 2.0425
1 8.17 -16.34 0
1 10.2125 -16.34 2.0425
1 12.255 -16.34 0
1 12.255 -14.2975 2.0425
1 14.2975 -16.34 2.0425
1 14.2975 -14.2975 0
1 -16.34 -12.255 0
1 -16.34 -10.2125 2.0425
1 -14.2975 -12.255 2.0425
1 -14.2975 -10.2125 0
1 -12.255 -12.255 0
1 12.255 -12.255 0
1 14.2975 -12.255 2.0425
1 14.2975 -10.2125 0
1 16.34 -12.255 0
1 16.34 -10.2125 2.0425
1 -18.3825 -6.1275 0
1 -16.34 -8.17 0
1 -16.34 -6.1275 2.0425
1 -14.2975 -8.17 2.0425
1 -14.2975 -6.1275 0
1 14.2975 -8.17 2.0425
1 14.2975 -6.1275 0
1 16.34 -8.17 0
1 16.34 -6.1275 2.0425
1 18.3825 -6.1275 0
1 -18.3825 -4.085 2.0425
1 -18.3825 -2.0425 0
1 -16.34 -4.085 0
1 -16.34 -2.0425 2.0425
1 16.34 -4.085 0
1 16.34 -2.0425 2.0425
1 18.3825 -4.085 2.0425
1 18.3825 -2.0425 0
1 -20.425 0 0
1 -18.3825 0 2.0425
1 -18.3825 2.0425 0
1 -16.34 0 0
1 -16.34 2.0425 2.0425
1 16.34 0 0
1 16.34 2.0425 2.0425
1 18.3825 0 2.0425
1 18.3825 2.0425 0
1 20.425 0 0
1 -18.3825 4.085 2.0425
1 -18.3825 6.1275 0
1 -16.34 4.085 0
1 -16.34 6.1275 2.0425
1 -14.2975 6.1275 0
1 14.2975 6.1275 0
1 16.34 4.085 0
1 16.34 6.1275 2.0425
1 18.3825 4.085 2.0425
1 18.3825 6.1275 0
1 -16.34 8.17 0
1 -16.34 10.2125 2.0425
1 -14.2975 8.17 2.0425
1 -14.2975 10.2125 0
1 14.2975 8.17 2.0425
1 14.2975 10.2125 0
1 16.34 8.17 0
1 16.34 10.2125 2.0425
1 -16.34 12.255 0
1 -14.2975 12.255 2.0425
1 -14.2975 14.2975 0
1 -12.255 12.255 0
1 -12.255 14.2975 2.0425
1 12.255 12.255 0
1 12.255 14.2975 2.0425
1 14.2975 12.255 2.0425
1 14.2975 14.2975 0
1 16.34 12.255 0
1 -14.2975 16.34 2.0425
1 -12.255 16.34 0
1 -12.255 18.3825 2.0425
1 -10.2125 16.34 2.0425
1 -10.2125 18.3825 0
1 -8.17 16.34 0
1 -8.17 18.3825 2.0425
1 -6.1275 16.34 2.0425
1 -6.1275 18.3825 0
1 -4.085 16.34 0
1 -4.085 18.3825 2.0425
1 -2.0425 16.34 2.0425
1 -2.0425 18.3825 0
1 0 16.34 0
1 0 18.3825 2.0425
1 2.0425 16.34 2.0425
1 2.0425 18.3825 0
1 4.085 16.34 0
1 4.085 18.3825 2.0425
1 6.1275 16.34 2.0425
1 6.1275 18.3825 0
1 8.17 16.34 0
1 8.17 18.3825 2.0425
1 10.2125 16.34 2.0425
1 10.2125 18.3825 0
1 12.255 16.34 0
1 12.255 18.3825 2.0425
1 14.2975 16.34 2.0425
1 -12.255 20.425 0
1 -8.17 20.425 0
1 -4.085 20.425 0
1 0 20.425 0
1 4.085 20.425 0
1 8.17 20.425 0
1 12.255 20.425 0
1 -10.2125 -18.3825 4.085
1 -8.17 -18.3825 6.1275
1 -6.1275 -18.3825 4.085
1 -4.085 -18.3825 6.1275
1 -2.0425 -18.3825 4.085
1 0 -18.3825 6.1275
1 2.0425 -18.3825 4.085
1 4.085 -18.3825 6.1275
1 6.1275 -18.3825 4.085
1 8.17 -18.3825 6.1275
1 10.2125 -18.3825 4.085
1 -14.2975 -14.2975 4.085
1 -12.255 -16.34 4.085
1 -12.255 -14.2975 6.1275
1 -10.2125 -16.34 6.1275
1 -10.2125 -14.2975 4.085
1 -8.17 -16.34 4.085
1 -8.17 -14.2975 6.1275
1 -6.1275 -16.34 6.1275
1 -4.085 -16.34 4.085
1 -4.085 -14.2975 6.1275
1 -2.0425 -16.34 6.1275
1 0 -16.34 4.085
1 0 -14.2975 6.1275
1 2.0425 -16.34 6.1275
1 4.085 -16.34 4.085
1 4.085 -14.2975 6.1275
1 6.1275 -16.34 6.1275
1 8.17 -16.34 4.085
1 8.17 -14.2975 6.1275
1 10.2125 -16.34 6.1275
1 10.2125 -14.2975 4.085
1 12.255 -16.34 4.085
1 12.255 -14.2975 6.1275
1 14.2975 -14.2975 4.085
1 -16.34 -12.255 4.085
1 -16.34 -10.2125 6.1275
1 -14.2975 -12.255 6.1275
1 -14.2975 -10.2125 4.085
1 -12.255 -12.255 4.085
1 -12.255 -10.2125 6.1275
1 -10.2125 -12.255 6.1275
1 10.2125 -12.255 6.1275
1 12.255 -12.255 4.085
1 12.255 -10.2125 6.1275
1 14.2975 -12.255 6.1275
1 14.2975 -10.2125 4.085
1 16.34 -12.255 4.085
1 16.34 -10.2125 6.1275
1 -18.3825 -6.1275 4.085
1 -16.34 -8.17 4.085
1 -16.34 -6.1275 6.1275
1 -14.2975 -8.17 6.1275
1 -14.2975 -6.1275 4.085
1 14.2975 -8.17 6.1275
1 14.2975 -6.1275 4.085
1 16.34 -8.17 4.085
1 16.34 -6.1275 6.1275
1 18.3825 -6.1275 4.085
1 -18.3825 -4.085 6.1275
1 -18.3825 -2.0425 4.085
1 -16.34 -4.085 4.085
1 -16.34 -2.0425 6.1275
1 16.34 -4.085 4.085
1 16.34 -2.0425 6.1275
1 18.3825 -4.085 6.1275
1 18.3825 -2.0425 4.085
1 -20.425 0 4.085
1 -18.3825 0 6.1275
1 -18.3825 2.0425 4.085
1 -16.34 0 4.085
1 -16.34 2.0425 6.1275
1 16.34 0 4.085
1 16.34 2.0425 6.1275
1 18.3825 0 6.1275
1 18.3825 2.0425 4.085
1 20.425 0 4.085
1 -18.3825 4.085 6.1275
1 -18.3825 6.1275 4.085
1 -16.34 4.085 4.085
1 -16.34 6.1275 6.1275
1 -14.2975 6.1275 4.085
1 14.2975 6.1275 4.085
1 16.34 4.085 4.085
1 16.34 6.1275 6.1275
1 18.3825 4.085 6.1275
1 18.3825 6.1275 4.085
1 -16.34 8.17 4.085
1 -16.34 10.2125 6.1275
1 -14.2975 8.17 6.1275
1 -14.2975 10.2125 4.085
1 -12.255 10.2125 6.1275
1 12.255 10.2125 6.1275
1 14.2975 8.17 6.1275
1 14.2975 10.2125 4.085
1 16.34 8.17 4.085
1 16.34 10.2125 6.1275
1 -16.34 12.255 4.085
1 -14.2975 12.255 6.1275
1 -14.2975 14.2975 4.085
1 -12.255 12.255 4.085
1 -12.255 14.2975 6.1275
1 -10.2125 12.255 6.1275
1 -10.2125 14.2975 4.085
1 -8.17 14.2975 6.1275
1 -4.085 14.2975 6.1275
1 0 14.2975 6.1275
1 4.085 14.2975 6.1275
1 8.17 14.2975 6.1275
1 10.2125 12.255 6.1275
1 10.2125 14.2975 4.085
1 12.255 12.255 4.085
1 12.255 14.2975 6.1275
1 14.2975 12.255 6.1275
1 14.2975 14.2975 4.085
1 16.34 12.255 4.085
1 -12.255 16.34 4.085
1 -10.2125 16.34 6.1275
1 -10.2125 18.3825 4.085
1 -8.17 16.34 4.085
1 -8.17 18.3825 6.1275
1 -6.1275 16.34 6.1275
1 -6.1275 18.3825 4.085
1 -4.085 16.34 4.085
1 -4.085 18.3825 6.1275
1 -2.0425 16.34 6.1275
1 -2.0425 18.3825 4.085
1 0 16.34 4.085
1 0 18.3825 6.1275
1 2.0425 16.34 6.1275
1 2.0425 18.3825 4.085
1 4.085 16.34 4.085
1 4.085 18.3825 6.1275
1 6.1275 16.34 6.1275
1 6.1275 18.3825 4.085
1 8.17 16.34 4.085
1 8.17 18.3825 6.1275
1 10.2125 16.34 6.1275
1 10.2125 18.3825 4.085
1 12.255 16.34 4.085
1 -10.2125 -14.2975 8.17
1 -8.17 -16.34 8.17
1 -8.17 -14.2975 10.2125
1 -6.1275 -16.34 10.2125
1 -6.1275 -14.2975 8.17
1 -4.085 -16.34 8.17
1 -4.085 -14.2975 10.2125
1 -2.0425 -16.34 10.2125
1 -2.0425 -14.2975 8.17
1 0 -16.34 8.17
1 0 -14.2975 10.2125
1 2.0425 -16.34 10.2125
1 2.0425 -14.2975 8.17
1 4.085 -16.34 8.17
1 4.085 -14.2975 10.2125
1 6.1275 -16.34 10.2125
1 6.1275 -14.2975 8.17
1 8.17 -16.34 8.17
1 8.17 -14.2975 10.2125
1 10.2125 -14.2975 8.17
1 -14.2975 -10.2125 8.17
1 -12.255 -12.255 8.17
1 -12.255 -10.2125 10.2125
1 -10.2125 -12.255 10.2125
1 -10.2125 -10.2125 8.17
1 -8.17 -12.255 8.17
1 -8.17 -10.2125 10.2125
1 -6.1275 -12.255 10.2125
1 6.1275 -12.255 10.2125
1 8.17 -12.255 8.17
1 8.17 -10.2125 10.2125
1 10.2125 -12.255 10.2125
1 10.2125 -10.2125 8.17
1 12.255 -12.255 8.17
1 12.255 -10.2125 10.2125
1 14.2975 -10.2125 8.17
1 -18.3825 -6.1275 8.17
1 -16.34 -8.17 8.17
1 -16.34 -6.1275 10.2125
1 -14.2975 -8.17 10.2125
1 -14.2975 -6.1275 8.17
1 -12.255 -8.17 8.17
1 -12.255 -6.1275 10.2125
1 -10.2125 -8.17 10.2125
1 10.2125 -8.17 10.2125
1 12.255 -8.17 8.17
1 12.255 -6.1275 10.2125
1 14.2975 -8.17 10.2125
1 14.2975 -6.1275 8.17
1 16.34 -8.17 8.17
1 16.34 -6.1275 10.2125
1 18.3825 -6.1275 8.17
1 -18.3825 -4.085 10.2125
1 -18.3825 -2.0425 8.17
1 -16.34 -4.085 8.17
1 -16.34 -2.0425 10.2125
1 -14.2975 -4.085 10.2125
1 14.2975 -4.085 10.2125
1 16.34 -4.085 8.17
1 16.34 -2.0425 10.2125
1 18.3825 -4.085 10.2125
1 18.3825 -2.0425 8.17
1 -20.425 0 8.17
1 -18.3825 0 10.2125
1 -18.3825 2.0425 8.17
1 -16.34 0 8.17
1 -16.34 2.0425 10.2125
1 16.34 0 8.17
1 16.34 2.0425 10.2125
1 18.3825 0 10.2125
1 18.3825 2.0425 8.17
1 20.425 0 8.17
1 -18.3825 4.085 10.2125
1 -18.3825 6.1275 8.17
1 -16.34 4.085 8.17
1 -16.34 6.1275 10.2125
1 -14.2975 4.085 10.2125
1 -14.2975 6.1275 8.17
1 -12.255 6.1275 10.2125
1 12.255 6.1275 10.2125
1 14.2975 4.085 10.2125
1 14.2975 6.1275 8.17
1 16.34 4.085 8.17
1 16.34 6.1275 10.2125
1 18.3825 4.085 10.2125
1 18.3825 6.1275 8.17
1 -16.34 8.17 8.17
1 -14.2975 8.17 10.2125
1 -14.2975 10.2125 8.17
1 -12.255 8.17 8.17
1 -12.255 10.2125 10.2125
1 -10.2125 8.17 10.2125
1 -10.2125 10.2125 8.17
1 -8.17 10.2125 10.2125
1 8.17 10.2125 10.2125
1 10.2125 8.17 10.2125
1 10.2125 10.2125 8.17
1 12.255 8.17 8.17
1 12.255 10.2125 10.2125
1 14.2975 8.17 10.2125
1 14.2975 10.2125 8.17
1 16.34 8.17 8.17
1 -12.255 12.255 8.17
1 -10.2125 12.255 10.2125
1 -10.2125 14.2975 8.17
1 -8.17 12.255 8.17
1 -8.17 14.2975 10.2125
1 -6.1275 12.255 10.2125
1 -6.1275 14.2975 8.17
1 -4.085 14.2975 10.2125
1 -2.0425 14.2975 8.17
1 0 14.2975 10.2125
1 2.0425 14.2975 8.17
1 4.085 14.2975 10.2125
1 6.1275 12.255 10.2125
1 6.1275 14.2975 8.17
1 8.17 12.255 8.17
1 8.17 14.2975 10.2125
1 10.2125 12.255 10.2125
1 10.2125 14.2975 8.17
1 12.255 12.255 8.17
1 -8.17 16.34 8.17
1 -6.1275 16.34 10.2125
1 -4.085 16.34 8.17
1 -2.0425 16.34 10.2125
1 0 16.34 8.17
1 2.0425 16.34 10.2125
1 4.085 16.34 8.17
1 6.1275 16.34 10.2125
1 8.17 16.34 8.17
1 -6.1275 -14.2975 12.255
1 -4.085 -16.34 12.255
1 -4.085 -14.2975 14.2975
1 -2.0425 -14.2975 12.255
1 0 -16.34 12.255
1 0 -14.2975 14.2975
1 2.0425 -14.2975 12.255
1 4.085 -16.34 12.255
1 4.085 -14.2975 14.2975
1 6.1275 -14.2975 12.255
1 -10.2125 -10.2125 12.255
1 -8.17 -12.255 12.255
1 -8.17 -10.2125 14.2975
1 -6.1275 -12.255 14.2975
1 -6.1275 -10.2125 12.255
1 -4.085 -12.255 12.255
1 -4.085 -10.2125 14.2975
1 -2.0425 -12.255 14.2975
1 0 -12.255 12.255
1 2.0425 -12.255 14.2975
1 4.085 -12.255 12.255
1 4.085 -10.2125 14.2975
1 6.1275 -12.255 14.2975
1 6.1275 -10.2125 12.255
1 8.17 -12.255 12.255
1 8.17 -10.2125 14.2975
1 10.2125 -10.2125 12.255
1 -14.2975 -6.1275 12.255
1 -12.255 -8.17 12.255
1 -12.255 -6.1275 14.2975
1 -10.2125 -8.17 14.2975
1 -10.2125 -6.1275 12.255
1 -8.17 -8.17 12.255
1 -8.17 -6.1275 14.2975
1 -6.1275 -8.17 14.2975
1 6.1275 -8.17 14.2975
1 8.17 -8.17 12.255
1 8.17 -6.1275 14.2975
1 10.2125 -8.17 14.2975
1 10.2125 -6.1275 12.255
1 12.255 -8.17 12.255
1 12.255 -6.1275 14.2975
1 14.2975 -6.1275 12.255
1 -18.3825 -2.0425 12.255
1 -16.34 -4.085 12.255
1 -16.34 -2.0425 14.2975
1 -14.2975 -4.085 14.2975
1 -14.2975 -2.0425 12.255
1 -12.255 -4.085 12.255
1 -12.255 -2.0425 14.2975
1 -10.2125 -4.085 14.2975
1 -8.17 -2.0425 14.2975
1 -6.1275 -4.085 14.2975
1 6.1275 -4.085 14.2975
1 8.17 -2.0425 14.2975
1 10.2125 -4.085 14.2975
1 12.255 -4.085 12.255
1 12.255 -2.0425 14.2975
1 14.2975 -4.085 14.2975
1 14.2975 -2.0425 12.255
1 16.34 -4.085 12.255
1 16.34 -2.0425 14.2975
1 18.3825 -2.0425 12.255
1 -20.425 0 12.255
1 -18.3825 2.0425 12.255
1 -16.34 0 12.255
1 -16.34 2.0425 14.2975
1 -14.2975 0 14.2975
1 -14.2975 2.0425 12.255
1 -12.255 0 12.255
1 -12.255 2.0425 14.2975
1 -10.2125 0 14.2975
1 -8.17 2.0425 14.2975
1 -6.1275 0 14.2975
1 6.1275 0 14.2975
1 8.17 2.0425 14.2975
1 10.2125 0 14.2975
1 12.255 0 12.255
1 12.255 2.0425 14.2975
1 14.2975 0 14.2975
1 14.2975 2.0425 12.255
1 16.34 0 12.255
1 16.34 2.0425 14.2975
1 18.3825 2.0425 12.255
1 20.425 0 12.255
1 -16.34 4.085 12.255
1 -14.2975 4.085 14.2975
1 -14.2975 6.1275 12.255
1 -12.255 4.085 12.255
1 -12.255 6.1275 14.2975
1 -10.2125 4.085 14.2975
1 -10.2125 6.1275 12.255
1 -8.17 6.1275 14.2975
1 -6.1275 4.085 14.2975
1 6.1275 4.085 14.2975
1 8.17 6.1275 14.2975
1 10.2125 4.085 14.2975
1 10.2125 6.1275 12.255
1 12.255 4.085 12.255
1 12.255 6.1275 14.2975
1 14.2975 4.085 14.2975
1 14.2975 6.1275 12.255
1 16.34 4.085 12.255
1 -12.255 8.17 12.255
1 -10.2125 8.17 14.2975
1 -10.2125 10.2125 12.255
1 -8.17 8.17 12.255
1 -8.17 10.2125 14.2975
1 -6.1275 8.17 14.2975
1 -6.1275 10.2125 12.255
1 -4.085 10.2125 14.2975
1 4.085 10.2125 14.2975
1 6.1275 8.17 14.2975
1 6.1275 10.2125 12.255
1 8.17 8.17 12.255
1 8.17 10.2125 14.2975
1 10.2125 8.17 14.2975
1 10.2125 10.2125 12.255
1 12.255 8.17 12.255
1 -8.17 12.255 12.255
1 -6.1275 12.255 14.2975
1 -6.1275 14.2975 12.255
1 -4.085 12.255 12.255
1 -4.085 14.2975 14.2975
1 -2.0425 12.255 14.2975
1 -2.0425 14.2975 12.255
1 0 12.255 12.255
1 0 14.2975 14.2975
1 2.0425 12.255 14.2975
1 2.0425 14.2975 12.255
1 4.085 12.255 12.255
1 4.085 14.2975 14.2975
1 6.1275 12.255 14.2975
1 6.1275 14.2975 12.255
1 8.17 12.255 12.255
1 -4.085 16.34 12.255
1 0 16.34 12.255
1 4.085 16.34 12.255
1 -2.0425 -14.2975 16.34
1 2.0425 -14.2975 16.34
1 -6.1275 -10.2125 16.34
1 -4.085 -12.255 16.34
1 -4.085 -10.2125 18.3825
1 -2.0425 -12.255 18.3825
1 -2.0425 -10.2125 16.34
1 0 -12.255 16.34
1 0 -10.2125 18.3825
1 2.0425 -12.255 18.3825
1 2.0425 -10.2125 16.34
1 4.085 -12.255 16.34
1 4.085 -10.2125 18.3825
1 6.1275 -10.2125 16.34
1 -10.2125 -6.1275 16.34
1 -8.17 -8.17 16.34
1 -6.1275 -8.17 18.3825
1 -6.1275 -6.1275 16.34
1 -4.085 -8.17 16.34
1 -4.085 -6.1275 18.3825
1 -2.0425 -8.17 18.3825
1 -2.0425 -6.1275 16.34
1 0 -8.17 16.34
1 0 -6.1275 18.3825
1 2.0425 -8.17 18.3825
1 2.0425 -6.1275 16.34
1 4.085 -8.17 16.34
1 4.085 -6.1275 18.3825
1 6.1275 -8.17 18.3825
1 6.1275 -6.1275 16.34
1 8.17 -8.17 16.34
1 10.2125 -6.1275 16.34
1 -12.255 -4.085 16.34
1 -10.2125 -2.0425 16.34
1 -8.17 -4.085 16.34
1 -6.1275 -4.085 18.3825
1 -6.1275 -2.0425 16.34
1 -4.085 -4.085 16.34
1 -4.085 -2.0425 18.3825
1 -2.0425 -4.085 18.3825
1 -2.0425 -2.0425 16.34
1 0 -4.085 16.34
1 0 -2.0425 18.3825
1 2.0425 -4.085 18.3825
1 2.0425 -2.0425 16.34
1 4.085 -4.085 16.34
1 4.085 -2.0425 18.3825
1 6.1275 -4.085 18.3825
1 6.1275 -2.0425 16.34
1 8.17 -4.085 16.34
1 10.2125 -2.0425 16.34
1 12.255 -4.085 16.34
1 -12.255 0 16.34
1 -10.2125 2.0425 16.34
1 -8.17 0 16.34
1 -6.1275 0 18.3825
1 -6.1275 2.0425 16.34
1 -4.085 0 16.34
1 -4.085 2.0425 18.3825
1 -2.0425 0 18.3825
1 -2.0425 2.0425 16.34
1 0 0 16.34
1 0 2.0425 18.3825
1 2.0425 0 18.3825
1 2.0425 2.0425 16.34
1 4.085 0 16.34
1 4.085 2.0425 18.3825
1 6.1275 0 18.3825
1 6.1275 2.0425 16.34
1 8.17 0 16.34
1 10.2125 2.0425 16.34
1 12.255 0 16.34
1 -12.255 4.085 16.34
1 -10.2125 6.1275 16.34
1 -8.17 4.085 16.34
1 -6.1275 4.085 18.3825
1 -6.1275 6.1275 16.34
1 -4.085 4.085 16.34
1 -4.085 6.1275 18.3825
1 -2.0425 4.085 18.3825
1 -2.0425 6.1275 16.34
1 0 4.085 16.34
1 0 6.1275 18.3825
1 2.0425 4.085 18.3825
1 2.0425 6.1275 16.34
1 4.085 4.085 16.34
1 4.085 6.1275 18.3825
1 6.1275 4.085 18.3825
1 6.1275 6.1275 16.34
1 8.17 4.085 16.34
1 10.2125 6.1275 16.34
1 12.255 4.085 16.34
1 -8.17 8.17 16.34
1 -6.1275 8.17 18.3825
1 -6.1275 10.2125 16.34
1 -4.085 8.17 16.34
1 -4.085 10.2125 18.3825
1 -2.0425 8.17 18.3825
1 -2.0425 10.2125 16.34
1 0 8.17 16.34
1 0 10.2125 18.3825
1 2.0425 8.17 18.3825
1 2.0425 10.2125 16.34
1 4.085 8.17 16.34
1 4.085 10.2125 18.3825
1 6.1275 8.17 18.3825
1 6.1275 10.2125 16.34
1 8.17 8.17 16.34
1 -4.085 12.255 16.34
1 -2.0425 12.255 18.3825
1 -2.0425 14.2975 16.34
1 0 12.255 16.34
1 2.0425 12.255 18.3825
1 2.0425 14.2975 16.34
1 4.085 12.255 16.34
1 0 -12.255 20.425
1 0 -8.17 20.425
1 0 -4.085 20.425
1 0 0 20.425
1 0 4.085 20.425
1 0 8.17 20.425
1 0 12.255 20.425
4 -14.0727 -16.7842 -4.218
2 -15.0032 -18.2411 -4.74658
2 -16.4968 -17.9764 -5.00777
2 -17.1815 -19.2887 -5.43111
2 -18.6745 -19.0249 -5.70163
4 17.5174 -7.62046 -10.1067
2 18.3789 -8.31836 -11.5388
2 19.7186 -9.00158 -11.2163
2 20.3388 -9.54253 -12.5203
2 21.673 -10.2427 -12.2068
4 7.01616 16.1513 -12.3966
2 6.69539 17.8524 -12.9657
2 7.9378 18.6843 -13.3451
2 7.50029 20.1091 -13.7397
2 8.73219 20.9507 -14.1193
4 15.2839 -11.3062 11.5537
2 15.6628 -11.5974 13.3177
2 16.7482 -12.6389 13.689
2 16.9003 -12.6783 15.2316
2 17.9733 -13.7018 15.6607
4 3.72052 3.01806 -20.1692
2 4.805 2.71874 -21.6098
2 4.08781 2.60155 -22.976
2 5.09147 2.4 -24.1334
2 4.32332 2.27614 -25.4674
4 19.8377 5.89563 -2.4161
2 21.5561 5.77471 -3.01922
2 22.3701 7.08942 -3.02972
2 23.8082 6.83141 -3.53149
2 24.6101 8.1494 -3.52857
4 1.54113 -18.4718 -8.35099
2 1.15537 -20.2694 -8.30856
2 1.5313 -21.1358 -9.54103
2 1.14759 -22.6189 -9.29465
2 1.52828 -23.4943 -10.5097
4 14.8013 16.0999 4.36321
2 16.1443 17.0559 5.11405
2 16.8273 18.0573 4.1616