18
Atoms. Timestep: 0
4 8.91096 9.12142 -17.9065
2 10.0655 9.89632 -20.2602
2 9.47451 10.4741 -18.9748
2 10.5095 10.9632 -21.1018
2 10.8745 10.557 -21.8997
2 -8.18182 -7.21249 -19.0863
2 -8.76504 -7.96927 -19.7491
2 -8.90858 -7.81278 -20.8977
2 -9.49393 -8.57132 -21.5658
2 -9.63889 -8.41601 -22.718
2 -10.2242 -9.17455 -23.3861
2 -10.3664 -9.01688 -24.5312
3 -10.9496 -9.77367 -25.194
4 -11.0917 -9.616 -26.339
2 -11.6774 -10.3748 -27.008
2 -11.8209 -10.2183 -28.1567
5 -12.4063 -10.9769 -28.8248
6 -12.5509 -10.8213 -29.9761
