1946
Atoms. Timestep: 0
1 16.3381 0 10.0975
1 16.3381 0 -10.0975
1 10.0975 16.3381 0
1 -10.0975 16.3381 0
1 0 10.0975 16.3381
1 0 -10.0975 16.3381
1 10.0975 -16.3381 0
1 0 10.0975 -16.3381
1 -16.3381 0 10.0975
1 0 -10.0975 -16.3381
1 -16.3381 0 -10.0975
1 -10.0975 -16.3381 0
1 16.3381 0 7.21249
1 16.3381 0 4.32749
1 16.3381 0 1.4425
1 16.3381 0 -1.4425
1 16.3381 0 -4.32749
1 16.3381 0 -7.21249
1 15.4466 2.33401 8.65499
1 14.555 4.66802 7.21249
1 13.6635 7.00203 5.76999
1 12.772 9.33604 4.32749
1 11.8805 11.67 2.885
1 10.989 14.0041 1.4425
1 14.0041 1.4425 10.989
1 11.67 2.885 11.8805
1 9.33604 4.32749 12.772
1 7.00203 5.76999 13.6635
1 4.66802 7.21249 14.555
1 2.33401 8.65499 15.4466
1 14.0041 -1.4425 10.989
1 11.67 -2.885 11.8805
1 9.33604 -4.32749 12.772
1 7.00203 -5.76999 13.6635
1 4.66802 -7.21249 14.555
1 2.33401 -8.65499 15.4466
1 15.4466 -2.33401 8.65499
1 14.555 -4.66802 7.21249
1 13.6635 -7.00203 5.76999
1 12.772 -9.33604 4.32749
1 11.8805 -11.67 2.885
1 10.989 -14.0041 1.4425
1 -15.4466 2.33401 -8.65499
1 -14.555 4.66802 -7.21249
1 -13.6635 7.00203 -5.76999
1 -12.772 9.33604 -4.32749
1 -11.8805 11.67 -2.885
1 -10.989 14.0041 -1.4425
1 -14.0041 1.4425 -10.989
1 -11.67 2.885 -11.8805
1 -9.33604 4.32749 -12.772
1 -7.00203 5.76999 -13.6635
1 -4.66802 7.21249 -14.555
1 -2.33401 8.65499 -15.4466
1 -16.3381 0 -7.21249
1 -16.3381 0 -4.32749
1 -16.3381 0 -1.4425
1 -16.3381 0 1.4425
1 -16.3381 0 4.32749
1 -16.3381 0 7.21249
1 -14.0041 -1.4425 -10.989
1 -11.67 -2.885 -11.8805
1 -9.33604 -4.32749 -12.772
1 -7.00203 -5.76999 -13.6635
1 -4.66802 -7.21249 -14.555
1 -2.33401 -8.65499 -15.4466
1 -15.4466 -2.33401 -8.65499
1 -14.555 -4.66802 -7.21249
1 -13.6635 -7.00203 -5.76999
1 -12.772 -9.33604 -4.32749
1 -11.8805 -11.67 -2.885
1 -10.989 -14.0041 -1.4425
1 15.4466 2.33401 -8.65499
1 14.555 4.66802 -7.21249
1 13.6635 7.00203 -5.76999
1 12.772 9.33604 -4.32749
1 11.8805 11.67 -2.885
1 10.989 14.0041 -1.4425
1 15.4466 -2.33401 -8.65499
1 14.555 -4.66802 -7.21249
1 13.6635 -7.00203 -5.76999
1 12.772 -9.33604 -4.32749
1 11.8805 -11.67 -2.885
1 10.989 -14.0041 -1.4425
1 14.0041 1.4425 -10.989
1 11.67 2.885 -11.8805
1 9.33604 4.32749 -12.772
1 7.00203 5.76999 -13.6635
1 4.66802 7.21249 -14.555
1 2.33401 8.65499 -15.4466
1 14.0041 -1.4425 -10.989
1 11.67 -2.885 -11.8805
1 9.33604 -4.32749 -12.772
1 7.00203 -5.76999 -13.6635
1 4.66802 -7.21249 -14.555
1 2.33401 -8.65499 -15.4466
1 -15.4466 2.33401 8.65499
1 -14.555 4.66802 7.21249
1 -13.6635 7.00203 5.76999
1 -12.772 9.33604 4.32749
1 -11.8805 11.67 2.885
1 -10.989 14.0041 1.4425
1 -14.0041 1.4425 10.989
1 -11.67 2.885 11.8805
1 -9.33604 4.32749 12.772
1 -7.00203 5.76999 13.6635
1 -4.66802 7.21249 14.555
1 -2.33401 8.65499 15.4466
1 -14.0041 -1.4425 10.989
1 -11.67 -2.885 11.8805
1 -9.33604 -4.32749 12.772
1 -7.00203 -5.76999 13.6635
1 -4.66802 -7.21249 14.555
1 -2.33401 -8.65499 15.4466
1 -15.4466 -2.33401 8.65499
1 -14.555 -4.66802 7.21249
1 -13.6635 -7.00203 5.76999
1 -12.772 -9.33604 4.32749
1 -11.8805 -11.67 2.885
1 -10.989 -14.0041 1.4425
1 7.21249 16.3381 0
1 4.32749 16.3381 0
1 1.4425 16.3381 0
1 -1.4425 16.3381 0
1 -4.32749 16.3381 0
1 -7.21249 16.3381 0
1 8.65499 15.4466 2.33401
1 7.21249 14.555 4.66802
1 5.76999 13.6635 7.00203
1 4.32749 12.772 9.33604
1 2.885 11.8805 11.67
1 1.4425 10.989 14.0041
1 8.65499 15.4466 -2.33401
1 7.21249 14.555 -4.66802
1 5.76999 13.6635 -7.00203
1 4.32749 12.772 -9.33604
1 2.885 11.8805 -11.67
1 1.4425 10.989 -14.0041
1 -8.65499 -15.4466 2.33401
1 -7.21249 -14.555 4.66802
1 -5.76999 -13.6635 7.00203
1 -4.32749 -12.772 9.33604
1 -2.885 -11.8805 11.67
1 -1.4425 -10.989 14.0041
1 -7.21249 -16.3381 0
1 -4.32749 -16.3381 0
1 -1.4425 -16.3381 0
1 1.4425 -16.3381 0
1 4.32749 -16.3381 0
1 7.21249 -16.3381 0
1 -8.65499 -15.4466 -2.33401
1 -7.21249 -14.555 -4.66802
1 -5.76999 -13.6635 -7.00203
1 -4.32749 -12.772 -9.33604
1 -2.885 -11.8805 -11.67
1 -1.4425 -10.989 -14.0041
1 8.65499 -15.4466 2.33401
1 7.21249 -14.555 4.66802
1 5.76999 -13.6635 7.00203
1 4.32749 -12.772 9.33604
1 2.885 -11.8805 11.67
1 1.4425 -10.989 14.0041
1 8.65499 -15.4466 -2.33401
1 7.21249 -14.555 -4.66802
1 5.76999 -13.6635 -7.00203
1 4.32749 -12.772 -9.33604
1 2.885 -11.8805 -11.67
1 1.4425 -10.989 -14.0041
1 -8.65499 15.4466 2.33401
1 -7.21249 14.555 4.66802
1 -5.76999 13.6635 7.00203
1 -4.32749 12.772 9.33604
1 -2.885 11.8805 11.67
1 -1.4425 10.989 14.0041
1 -8.65499 15.4466 -2.33401
1 -7.21249 14.555 -4.66802
1 -5.76999 13.6635 -7.00203
1 -4.32749 12.772 -9.33604
1 -2.885 11.8805 -11.67
1 -1.4425 10.989 -14.0041
1 0 7.21249 -16.3381
1 0 4.32749 -16.3381
1 0 1.4425 -16.3381
1 0 -1.4425 -16.3381
1 0 -4.32749 -16.3381
1 0 -7.21249 -16.3381
1 0 -7.21249 16.3381
1 0 -4.32749 16.3381
1 0 -1.4425 16.3381
1 0 1.4425 16.3381
1 0 4.32749 16.3381
1 0 7.21249 16.3381
1 15.4466 2.33401 5.76999
1 15.4466 2.33401 2.885
1 14.555 4.66802 4.32749
1 15.4466 2.33401 0
1 14.555 4.66802 1.4425
1 13.6635 7.00203 2.885
1 15.4466 2.33401 -2.885
1 14.555 4.66802 -1.4425
1 13.6635 7.00203 0
1 12.772 9.33604 1.4425
1 15.4466 2.33401 -5.76999
1 14.555 4.66802 -4.32749
1 13.6635 7.00203 -2.885
1 12.772 9.33604 -1.4425
1 11.8805 11.67 0
1 13.1126 3.77651 9.5465
1 12.221 6.11052 8.104
1 10.7785 5.21901 10.438
1 11.3295 8.44453 6.6615
1 9.88703 7.55302 8.99551
1 8.44453 6.6615 11.3295
1 10.438 10.7785 5.21901
1 8.99551 9.88703 7.55302
1 7.55302 8.99551 9.88703
1 6.11052 8.104 12.221
1 9.5465 13.1126 3.77651
1 8.104 12.221 6.11052
1 6.6615 11.3295 8.44453
1 5.21901 10.438 10.7785
1 3.77651 9.5465 13.1126
1 11.67 0 11.8805
1 9.33604 1.4425 12.772
1 9.33604 -1.4425 12.772
1 7.00203 2.885 13.6635
1 7.00203 0 13.6635
1 7.00203 -2.885 13.6635
1 4.66802 4.32749 14.555
1 4.66802 1.4425 14.555
1 4.66802 -1.4425 14.555
1 4.66802 -4.32749 14.555
1 2.33401 5.76999 15.4466
1 2.33401 2.885 15.4466
1 2.33401 0 15.4466
1 2.33401 -2.885 15.4466
1 2.33401 -5.76999 15.4466
1 13.1126 -3.77651 9.5465
1 10.7785 -5.21901 10.438
1 12.221 -6.11052 8.104
1 8.44453 -6.6615 11.3295
1 9.88703 -7.55302 8.99551
1 11.3295 -8.44453 6.6615
1 6.11052 -8.104 12.221
1 7.55302 -8.99551 9.88703
1 8.99551 -9.88703 7.55302
1 10.438 -10.7785 5.21901
1 3.77651 -9.5465 13.1126
1 5.21901 -10.438 10.7785
1 6.6615 -11.3295 8.44453
1 8.104 -12.221 6.11052
1 9.5465 -13.1126 3.77651
1 15.4466 -2.33401 5.76999
1 15.4466 -2.33401 2.885
1 14.555 -4.66802 4.32749
1 15.4466 -2.33401 0
1 14.555 -4.66802 1.4425
1 13.6635 -7.00203 2.885
1 15.4466 -2.33401 -2.885
1 14.555 -4.66802 -1.4425
1 13.6635 -7.00203 0
1 12.772 -9.33604 1.4425
1 15.4466 -2.33401 -5.76999
1 14.555 -4.66802 -4.32749
1 13.6635 -7.00203 -2.885
1 12.772 -9.33604 -1.4425
1 11.8805 -11.67 0
1 -13.1126 3.77651 -9.5465
1 -12.221 6.11052 -8.104
1 -10.7785 5.21901 -10.438
1 -11.3295 8.44453 -6.6615
1 -9.88703 7.55302 -8.99551
1 -8.44453 6.6615 -11.3295
1 -10.438 10.7785 -5.21901
1 -8.99551 9.88703 -7.55302
1 -7.55302 8.99551 -9.88703
1 -6.11052 8.104 -12.221
1 -9.5465 13.1126 -3.77651
1 -8.104 12.221 -6.11052
1 -6.6615 11.3295 -8.44453
1 -5.21901 10.438 -10.7785
1 -3.77651 9.5465 -13.1126
1 -15.4466 2.33401 -5.76999
1 -14.555 4.66802 -4.32749
1 -15.4466 2.33401 -2.885
1 -13.6635 7.00203 -2.885
1 -14.555 4.66802 -1.4425
1 -15.4466 2.33401 0
1 -12.772 9.33604 -1.4425
1 -13.6635 7.00203 0
1 -14.555 4.66802 1.4425
1 -15.4466 2.33401 2.885
1 -11.8805 11.67 0
1 -12.772 9.33604 1.4425
1 -13.6635 7.00203 2.885
1 -14.555 4.66802 4.32749
1 -15.4466 2.33401 5.76999
1 -15.4466 -2.33401 -5.76999
1 -15.4466 -2.33401 -2.885
1 -14.555 -4.66802 -4.32749
1 -15.4466 -2.33401 0
1 -14.555 -4.66802 -1.4425
1 -13.6635 -7.00203 -2.885
1 -15.4466 -2.33401 2.885
1 -14.555 -4.66802 1.4425
1 -13.6635 -7.00203 0
1 -12.772 -9.33604 -1.4425
1 -15.4466 -2.33401 5.76999
1 -14.555 -4.66802 4.32749
1 -13.6635 -7.00203 2.885
1 -12.772 -9.33604 1.4425
1 -11.8805 -11.67 0
1 -13.1126 -3.77651 -9.5465
1 -10.7785 -5.21901 -10.438
1 -12.221 -6.11052 -8.104
1 -8.44453 -6.6615 -11.3295
1 -9.88703 -7.55302 -8.99551
1 -11.3295 -8.44453 -6.6615
1 -6.11052 -8.104 -12.221
1 -7.55302 -8.99551 -9.88703
1 -8.99551 -9.88703 -7.55302
1 -10.438 -10.7785 -5.21901
1 -3.77651 -9.5465 -13.1126
1 -5.21901 -10.438 -10.7785
1 -6.6615 -11.3295 -8.44453
1 -8.104 -12.221 -6.11052
1 -9.5465 -13.1126 -3.77651
1 -11.67 0 -11.8805
1 -9.33604 1.4425 -12.772
1 -9.33604 -1.4425 -12.772
1 -7.00203 2.885 -13.6635
1 -7.00203 0 -13.6635
1 -7.00203 -2.885 -13.6635
1 -4.66802 4.32749 -14.555
1 -4.66802 1.4425 -14.555
1 -4.66802 -1.4425 -14.555
1 -4.66802 -4.32749 -14.555
1 -2.33401 5.76999 -15.4466
1 -2.33401 2.885 -15.4466
1 -2.33401 0 -15.4466
1 -2.33401 -2.885 -15.4466
1 -2.33401 -5.76999 -15.4466
1 13.1126 3.77651 -9.5465
1 12.221 6.11052 -8.104
1 10.7785 5.21901 -10.438
1 11.3295 8.44453 -6.6615
1 9.88703 7.55302 -8.99551
1 8.44453 6.6615 -11.3295
1 10.438 10.7785 -5.21901
1 8.99551 9.88703 -7.55302
1 7.55302 8.99551 -9.88703
1 6.11052 8.104 -12.221
1 9.5465 13.1126 -3.77651
1 8.104 12.221 -6.11052
1 6.6615 11.3295 -8.44453
1 5.21901 10.438 -10.7785
1 3.77651 9.5465 -13.1126
1 11.67 0 -11.8805
1 9.33604 1.4425 -12.772
1 9.33604 -1.4425 -12.772
1 7.00203 2.885 -13.6635
1 7.00203 0 -13.6635
1 7.00203 -2.885 -13.6635
1 4.66802 4.32749 -14.555
1 4.66802 1.4425 -14.555
1 4.66802 -1.4425 -14.555
1 4.66802 -4.32749 -14.555
1 2.33401 5.76999 -15.4466
1 2.33401 2.885 -15.4466
1 2.33401 0 -15.4466
1 2.33401 -2.885 -15.4466
1 2.33401 -5.76999 -15.4466
1 13.1126 -3.77651 -9.5465
1 12.221 -6.11052 -8.104
1 10.7785 -5.21901 -10.438
1 11.3295 -8.44453 -6.6615
1 9.88703 -7.55302 -8.99551
1 8.44453 -6.6615 -11.3295
1 10.438 -10.7785 -5.21901
1 8.99551 -9.88703 -7.55302
1 7.55302 -8.99551 -9.88703
1 6.11052 -8.104 -12.221
1 9.5465 -13.1126 -3.77651
1 8.104 -12.221 -6.11052
1 6.6615 -11.3295 -8.44453
1 5.21901 -10.438 -10.7785
1 3.77651 -9.5465 -13.1126
1 -13.1126 -3.77651 9.5465
1 -10.7785 -5.21901 10.438
1 -12.221 -6.11052 8.104
1 -8.44453 -6.6615 11.3295
1 -9.88703 -7.55302 8.99551
1 -11.3295 -8.44453 6.6615
1 -6.11052 -8.104 12.221
1 -7.55302 -8.99551 9.88703
1 -8.99551 -9.88703 7.55302
1 -10.438 -10.7785 5.21901
1 -3.77651 -9.5465 13.1126
1 -5.21901 -10.438 10.7785
1 -6.6615 -11.3295 8.44453
1 -8.104 -12.221 6.11052
1 -9.5465 -13.1126 3.77651
1 -11.67 0 11.8805
1 -9.33604 1.4425 12.772
1 -9.33604 -1.4425 12.772
1 -7.00203 2.885 13.6635
1 -7.00203 0 13.6635
1 -7.00203 -2.885 13.6635
1 -4.66802 4.32749 14.555
1 -4.66802 1.4425 14.555
1 -4.66802 -1.4425 14.555
1 -4.66802 -4.32749 14.555
1 -2.33401 5.76999 15.4466
1 -2.33401 2.885 15.4466
1 -2.33401 0 15.4466
1 -2.33401 -2.885 15.4466
1 -2.33401 -5.76999 15.4466
1 -13.1126 3.77651 9.5465
1 -12.221 6.11052 8.104
1 -10.7785 5.21901 10.438
1 -11.3295 8.44453 6.6615
1 -9.88703 7.55302 8.99551
1 -8.44453 6.6615 11.3295
1 -10.438 10.7785 5.21901
1 -8.99551 9.88703 7.55302
1 -7.55302 8.99551 9.88703
1 -6.11052 8.104 12.221
1 -9.5465 13.1126 3.77651
1 -8.104 12.221 6.11052
1 -6.6615 11.3295 8.44453
1 -5.21901 10.438 10.7785
1 -3.77651 9.5465 13.1126
1 5.76999 15.4466 -2.33401
1 2.885 15.4466 -2.33401
1 4.32749 14.555 -4.66802
1 0 15.4466 -2.33401
1 1.4425 14.555 -4.66802
1 2.885 13.6635 -7.00203
1 -2.885 15.4466 -2.33401
1 -1.4425 14.555 -4.66802
1 0 13.6635 -7.00203
1 1.4425 12.772 -9.33604
1 -5.76999 15.4466 -2.33401
1 -4.32749 14.555 -4.66802
1 -2.885 13.6635 -7.00203
1 -1.4425 12.772 -9.33604
1 0 11.8805 -11.67
1 5.76999 15.4466 2.33401
1 2.885 15.4466 2.33401
1 4.32749 14.555 4.66802
1 0 15.4466 2.33401
1 1.4425 14.555 4.66802
1 2.885 13.6635 7.00203
1 -2.885 15.4466 2.33401
1 -1.4425 14.555 4.66802
1 0 13.6635 7.00203
1 1.4425 12.772 9.33604
1 -5.76999 15.4466 2.33401
1 -4.32749 14.555 4.66802
1 -2.885 13.6635 7.00203
1 -1.4425 12.772 9.33604
1 0 11.8805 11.67
1 -5.76999 -15.4466 2.33401
1 -4.32749 -14.555 4.66802
1 -2.885 -15.4466 2.33401
1 -2.885 -13.6635 7.00203
1 -1.4425 -14.555 4.66802
1 0 -15.4466 2.33401
1 -1.4425 -12.772 9.33604
1 0 -13.6635 7.00203
1 1.4425 -14.555 4.66802
1 2.885 -15.4466 2.33401
1 0 -11.8805 11.67
1 1.4425 -12.772 9.33604
1 2.885 -13.6635 7.00203
1 4.32749 -14.555 4.66802
1 5.76999 -15.4466 2.33401
1 -5.76999 -15.4466 -2.33401
1 -2.885 -15.4466 -2.33401
1 -4.32749 -14.555 -4.66802
1 0 -15.4466 -2.33401
1 -1.4425 -14.555 -4.66802
1 -2.885 -13.6635 -7.00203
1 2.885 -15.4466 -2.33401
1 1.4425 -14.555 -4.66802
1 0 -13.6635 -7.00203
1 -1.4425 -12.772 -9.33604
1 5.76999 -15.4466 -2.33401
1 4.32749 -14.555 -4.66802
1 2.885 -13.6635 -7.00203
1 1.4425 -12.772 -9.33604
1 0 -11.8805 -11.67
1 18.6721 0 11.54
1 18.6721 0 -11.54
1 11.54 18.6721 0
1 -11.54 18.6721 0
1 0 11.54 18.6721
1 0 -11.54 18.6721
1 11.54 -18.6721 0
1 0 11.54 -18.6721
1 -18.6721 0 11.54
1 0 -11.54 -18.6721
1 -18.6721 0 -11.54
1 -11.54 -18.6721 0
1 18.6721 0 8.65499
1 18.6721 0 5.76999
1 18.6721 0 2.885
1 18.6721 0 0
1 18.6721 0 -2.885
1 18.6721 0 -5.76999
1 18.6721 0 -8.65499
1 17.7806 2.33401 10.0975
1 16.8891 4.66802 8.65499
1 15.9976 7.00203 7.21249
1 15.106 9.33604 5.76999
1 14.2145 11.67 4.32749
1 13.323 14.0041 2.885
1 12.4315 16.3381 1.4425
1 16.3381 1.4425 12.4315
1 14.0041 2.885 13.323
1 11.67 4.32749 14.2145
1 9.33604 5.76999 15.106
1 7.00203 7.21249 15.9976
1 4.66802 8.65499 16.8891
1 2.33401 10.0975 17.7806
1 16.3381 -1.4425 12.4315
1 14.0041 -2.885 13.323
1 11.67 -4.32749 14.2145
1 9.33604 -5.76999 15.106
1 7.00203 -7.21249 15.9976
1 4.66802 -8.65499 16.8891
1 2.33401 -10.0975 17.7806
1 17.7806 -2.33401 10.0975
1 16.8891 -4.66802 8.65499
1 15.9976 -7.00203 7.21249
1 15.106 -9.33604 5.76999
1 14.2145 -11.67 4.32749
1 13.323 -14.0041 2.885
1 12.4315 -16.3381 1.4425
1 -17.7806 2.33401 -10.0975
1 -16.8891 4.66802 -8.65499
1 -15.9976 7.00203 -7.21249
1 -15.106 9.33604 -5.76999
1 -14.2145 11.67 -4.32749
1 -13.323 14.0041 -2.885
1 -12.4315 16.3381 -1.4425
1 -16.3381 1.4425 -12.4315
1 -14.0041 2.885 -13.323
1 -11.67 4.32749 -14.2145
1 -9.33604 5.76999 -15.106
1 -7.00203 7.21249 -15.9976
1 -4.66802 8.65499 -16.8891
1 -2.33401 10.0975 -17.7806
1 -18.6721 0 -8.65499
1 -18.6721 0 -5.76999
1 -18.6721 0 -2.885
1 -18.6721 0 0
1 -18.6721 0 2.885
1 -18.6721 0 5.76999
1 -18.6721 0 8.65499
1 -16.3381 -1.4425 -12.4315
1 -14.0041 -2.885 -13.323
1 -11.67 -4.32749 -14.2145
1 -9.33604 -5.76999 -15.106
1 -7.00203 -7.21249 -15.9976
1 -4.66802 -8.65499 -16.8891
1 -2.33401 -10.0975 -17.7806
1 -17.7806 -2.33401 -10.0975
1 -16.8891 -4.66802 -8.65499
1 -15.9976 -7.00203 -7.21249
1 -15.106 -9.33604 -5.76999
1 -14.2145 -11.67 -4.32749
1 -13.323 -14.0041 -2.885
1 -12.4315 -16.3381 -1.4425
1 17.7806 2.33401 -10.0975
1 16.8891 4.66802 -8.65499
1 15.9976 7.00203 -7.21249
1 15.106 9.33604 -5.76999
1 14.2145 11.67 -4.32749
1 13.323 14.0041 -2.885
1 12.4315 16.3381 -1.4425
1 17.7806 -2.33401 -10.0975
1 16.8891 -4.66802 -8.65499
1 15.9976 -7.00203 -7.21249
1 15.106 -9.33604 -5.76999
1 14.2145 -11.67 -4.32749
1 13.323 -14.0041 -2.885
1 12.4315 -16.3381 -1.4425
1 16.3381 1.4425 -12.4315
1 14.0041 2.885 -13.323
1 11.67 4.32749 -14.2145
1 9.33604 5.76999 -15.106
1 7.00203 7.21249 -15.9976
1 4.66802 8.65499 -16.8891
1 2.33401 10.0975 -17.7806
1 16.3381 -1.4425 -12.4315
1 14.0041 -2.885 -13.323
1 11.67 -4.32749 -14.2145
1 9.33604 -5.76999 -15.106
1 7.00203 -7.21249 -15.9976
1 4.66802 -8.65499 -16.8891
1 2.33401 -10.0975 -17.7806
1 -17.7806 2.33401 10.0975
1 -16.8891 4.66802 8.65499
1 -15.9976 7.00203 7.21249
1 -15.106 9.33604 5.76999
1 -14.2145 11.67 4.32749
1 -13.323 14.0041 2.885
1 -12.4315 16.3381 1.4425
1 -16.3381 1.4425 12.4315
1 -14.0041 2.885 13.323
1 -11.67 4.32749 14.2145
1 -9.33604 5.76999 15.106
1 -7.00203 7.21249 15.9976
1 -4.66802 8.65499 16.8891
1 -2.33401 10.0975 17.7806
1 -16.3381 -1.4425 12.4315
1 -14.0041 -2.885 13.323
1 -11.67 -4.32749 14.2145
1 -9.33604 -5.76999 15.106
1 -7.00203 -7.21249 15.9976
1 -4.66802 -8.65499 16.8891
1 -2.33401 -10.0975 17.7806
1 -17.7806 -2.33401 10.0975
1 -16.8891 -4.66802 8.65499
1 -15.9976 -7.00203 7.21249
1 -15.106 -9.33604 5.76999
1 -14.2145 -11.67 4.32749
1 -13.323 -14.0041 2.885
1 -12.4315 -16.3381 1.4425
1 8.65499 18.6721 0
1 5.76999 18.6721 0
1 2.885 18.6721 0
1 0 18.6721 0
1 -2.885 18.6721 0
1 -5.76999 18.6721 0
1 -8.65499 18.6721 0
1 10.0975 17.7806 2.33401
1 8.65499 16.8891 4.66802
1 7.21249 15.9976 7.00203
1 5.76999 15.106 9.33604
1 4.32749 14.2145 11.67
1 2.885 13.323 14.0041
1 1.4425 12.4315 16.3381
1 10.0975 17.7806 -2.33401
1 8.65499 16.8891 -4.66802
1 7.21249 15.9976 -7.00203
1 5.76999 15.106 -9.33604
1 4.32749 14.2145 -11.67
1 2.885 13.323 -14.0041
1 1.4425 12.4315 -16.3381
1 -10.0975 -17.7806 2.33401
1 -8.65499 -16.8891 4.66802
1 -7.21249 -15.9976 7.00203
1 -5.76999 -15.106 9.33604
1 -4.32749 -14.2145 11.67
1 -2.885 -13.323 14.0041
1 -1.4425 -12.4315 16.3381
1 -8.65499 -18.6721 0
1 -5.76999 -18.6721 0
1 -2.885 -18.6721 0
1 0 -18.6721 0
1 2.885 -18.6721 0
1 5.76999 -18.6721 0
1 8.65499 -18.6721 0
1 -10.0975 -17.7806 -2.33401
1 -8.65499 -16.8891 -4.66802
1 -7.21249 -15.9976 -7.00203
1 -5.76999 -15.106 -9.33604
1 -4.32749 -14.2145 -11.67
1 -2.885 -13.323 -14.0041
1 -1.4425 -12.4315 -16.3381
1 10.0975 -17.7806 2.33401
1 8.65499 -16.8891 4.66802
1 7.21249 -15.9976 7.00203
1 5.76999 -15.106 9.33604
1 4.32749 -14.2145 11.67
1 2.885 -13.323 14.0041
1 1.4425 -12.4315 16.3381
1 10.0975 -17.7806 -2.33401
1 8.65499 -16.8891 -4.66802
1 7.21249 -15.9976 -7.00203
1 5.76999 -15.106 -9.33604
1 4.32749 -14.2145 -11.67
1 2.885 -13.323 -14.0041
1 1.4425 -12.4315 -16.3381
1 -10.0975 17.7806 2.33401
1 -8.65499 16.8891 4.66802
1 -7.21249 15.9976 7.00203
1 -5.76999 15.106 9.33604
1 -4.32749 14.2145 11.67
1 -2.885 13.323 14.0041
1 -1.4425 12.4315 16.3381
1 -10.0975 17.7806 -2.33401
1 -8.65499 16.8891 -4.66802
1 -7.21249 15.9976 -7.00203
1 -5.76999 15.106 -9.33604
1 -4.32749 14.2145 -11.67
1 -2.885 13.323 -14.0041
1 -1.4425 12.4315 -16.3381
1 0 8.65499 -18.6721
1 0 5.76999 -18.6721
1 0 2.885 -18.6721
1 0 0 -18.6721
1 0 -2.885 -18.6721
1 0 -5.76999 -18.6721
1 0 -8.65499 -18.6721
1 0 -8.65499 18.6721
1 0 -5.76999 18.6721
1 0 -2.885 18.6721
1 0 0 18.6721
1 0 2.885 18.6721
1 0 5.76999 18.6721
1 0 8.65499 18.6721
1 17.7806 2.33401 7.21249
1 17.7806 2.33401 4.32749
1 16.8891 4.66802 5.76999
1 17.7806 2.33401 1.4425
1 16.8891 4.66802 2.885
1 15.9976 7.00203 4.32749
1 17.7806 2.33401 -1.4425
1 16.8891 4.66802 0
1 15.9976 7.00203 1.4425
1 15.106 9.33604 2.885
1 17.7806 2.33401 -4.32749
1 16.8891 4.66802 -2.885
1 15.9976 7.00203 -1.4425
1 15.106 9.33604 0
1 14.2145 11.67 1.4425
1 17.7806 2.33401 -7.21249
1 16.8891 4.66802 -5.76999
1 15.9976 7.00203 -4.32749
1 15.106 9.33604 -2.885
1 14.2145 11.67 -1.4425
1 13.323 14.0041 0
1 15.4466 3.77651 10.989
1 14.555 6.11052 9.5465
1 13.1126 5.21901 11.8805
1 13.6635 8.44453 8.104
1 12.221 7.55302 10.438
1 10.7785 6.6615 12.772
1 12.772 10.7785 6.6615
1 11.3295 9.88703 8.99551
1 9.88703 8.99551 11.3295
1 8.44453 8.104 13.6635
1 11.8805 13.1126 5.21901
1 10.438 12.221 7.55302
1 8.99551 11.3295 9.88703
1 7.55302 10.438 12.221
1 6.11052 9.5465 14.555
1 10.989 15.4466 3.77651
1 9.5465 14.555 6.11052
1 8.104 13.6635 8.44453
1 6.6615 12.772 10.7785
1 5.21901 11.8805 13.1126
1 3.77651 10.989 15.4466
1 14.0041 0 13.323
1 11.67 1.4425 14.2145
1 11.67 -1.4425 14.2145
1 9.33604 2.885 15.106
1 9.33604 0 15.106
1 9.33604 -2.885 15.106
1 7.00203 4.32749 15.9976
1 7.00203 1.4425 15.9976
1 7.00203 -1.4425 15.9976
1 7.00203 -4.32749 15.9976
1 4.66802 5.76999 16.8891
1 4.66802 2.885 16.8891
1 4.66802 0 16.8891
1 4.66802 -2.885 16.8891
1 4.66802 -5.76999 16.8891
1 2.33401 7.21249 17.7806
1 2.33401 4.32749 17.7806
1 2.33401 1.4425 17.7806
1 2.33401 -1.4425 17.7806
1 2.33401 -4.32749 17.7806
1 2.33401 -7.21249 17.7806
1 15.4466 -3.77651 10.989
1 13.1126 -5.21901 11.8805
1 14.555 -6.11052 9.5465
1 10.7785 -6.6615 12.772
1 12.221 -7.55302 10.438
1 13.6635 -8.44453 8.104
1 8.44453 -8.104 13.6635
1 9.88703 -8.99551 11.3295
1 11.3295 -9.88703 8.99551
1 12.772 -10.7785 6.6615
1 6.11052 -9.5465 14.555
1 7.55302 -10.438 12.221
1 8.99551 -11.3295 9.88703
1 10.438 -12.221 7.55302
1 11.8805 -13.1126 5.21901
1 3.77651 -10.989 15.4466
1 5.21901 -11.8805 13.1126
1 6.6615 -12.772 10.7785
1 8.104 -13.6635 8.44453
1 9.5465 -14.555 6.11052
1 10.989 -15.4466 3.77651
1 17.7806 -2.33401 7.21249
1 17.7806 -2.33401 4.32749
1 16.8891 -4.66802 5.76999
1 17.7806 -2.33401 1.4425
1 16.8891 -4.66802 2.885
1 15.9976 -7.00203 4.32749
1 17.7806 -2.33401 -1.4425
1 16.8891 -4.66802 0
1 15.9976 -7.00203 1.4425
1 15.106 -9.33604 2.885
1 17.7806 -2.33401 -4.32749
1 16.8891 -4.66802 -2.885
1 15.9976 -7.00203 -1.4425
1 15.106 -9.33604 0
1 14.2145 -11.67 1.4425
1 17.7806 -2.33401 -7.21249
1 16.8891 -4.66802 -5.76999
1 15.9976 -7.00203 -4.32749
1 15.106 -9.33604 -2.885
1 14.2145 -11.67 -1.4425
1 13.323 -14.0041 0
1 -15.4466 3.77651 -10.989
1 -14.555 6.11052 -9.5465
1 -13.1126 5.21901 -11.8805
1 -13.6635 8.44453 -8.104
1 -12.221 7.55302 -10.438
1 -10.7785 6.6615 -12.772
1 -12.772 10.7785 -6.6615
1 -11.3295 9.88703 -8.99551
1 -9.88703 8.99551 -11.3295
1 -8.44453 8.104 -13.6635
1 -11.8805 13.1126 -5.21901
1 -10.438 12.221 -7.55302
1 -8.99551 11.3295 -9.88703
1 -7.55302 10.438 -12.221
1 -6.11052 9.5465 -14.555
1 -10.989 15.4466 -3.77651
1 -9.5465 14.555 -6.11052
1 -8.104 13.6635 -8.44453
1 -6.6615 12.772 -10.7785
1 -5.21901 11.8805 -13.1126
1 -3.77651 10.989 -15.4466
1 -17.7806 2.33401 -7.21249
1 -16.8891 4.66802 -5.76999
1 -17.7806 2.33401 -4.32749
1 -15.9976 7.00203 -4.32749
1 -16.8891 4.66802 -2.885
1 -17.7806 2.33401 -1.4425
1 -15.106 9.33604 -2.885
1 -15.9976 7.00203 -1.4425
1 -16.8891 4.66802 0
1 -17.7806 2.33401 1.4425
1 -14.2145 11.67 -1.4425
1 -15.106 9.33604 0
1 -15.9976 7.00203 1.4425
1 -16.8891 4.66802 2.885
1 -17.7806 2.33401 4.32749
1 -13.323 14.0041 0
1 -14.2145 11.67 1.4425
1 -15.106 9.33604 2.885
1 -15.9976 7.00203 4.32749
1 -16.8891 4.66802 5.76999
1 -17.7806 2.33401 7.21249
1 -17.7806 -2.33401 -7.21249
1 -17.7806 -2.33401 -4.32749
1 -16.8891 -4.66802 -5.76999
1 -17.7806 -2.33401 -1.4425
1 -16.8891 -4.66802 -2.885
1 -15.9976 -7.00203 -4.32749
1 -17.7806 -2.33401 1.4425
1 -16.8891 -4.66802 0
1 -15.9976 -7.00203 -1.4425
1 -15.106 -9.33604 -2.885
1 -17.7806 -2.33401 4.32749
1 -16.8891 -4.66802 2.885
1 -15.9976 -7.00203 1.4425
1 -15.106 -9.33604 0
1 -14.2145 -11.67 -1.4425
1 -17.7806 -2.33401 7.21249
1 -16.8891 -4.66802 5.76999
1 -15.9976 -7.00203 4.32749
1 -15.106 -9.33604 2.885
1 -14.2145 -11.67 1.4425
1 -13.323 -14.0041 0
1 -15.4466 -3.77651 -10.989
1 -13.1126 -5.21901 -11.8805
1 -14.555 -6.11052 -9.5465
1 -10.7785 -6.6615 -12.772
1 -12.221 -7.55302 -10.438
1 -13.6635 -8.44453 -8.104
1 -8.44453 -8.104 -13.6635
1 -9.88703 -8.99551 -11.3295
1 -11.3295 -9.88703 -8.99551
1 -12.772 -10.7785 -6.6615
1 -6.11052 -9.5465 -14.555
1 -7.55302 -10.438 -12.221
1 -8.99551 -11.3295 -9.88703
1 -10.438 -12.221 -7.55302
1 -11.8805 -13.1126 -5.21901
1 -3.77651 -10.989 -15.4466
1 -5.21901 -11.8805 -13.1126
1 -6.6615 -12.772 -10.7785
1 -8.104 -13.6635 -8.44453
1 -9.5465 -14.555 -6.11052
1 -10.989 -15.4466 -3.77651
1 -14.0041 0 -13.323
1 -11.67 1.4425 -14.2145
1 -11.67 -1.4425 -14.2145
1 -9.33604 2.885 -15.106
1 -9.33604 0 -15.106
1 -9.33604 -2.885 -15.106
1 -7.00203 4.32749 -15.9976
1 -7.00203 1.4425 -15.9976
1 -7.00203 -1.4425 -15.9976
1 -7.00203 -4.32749 -15.9976
1 -4.66802 5.76999 -16.8891
1 -4.66802 2.885 -16.8891
1 -4.66802 0 -16.8891
1 -4.66802 -2.885 -16.8891
1 -4.66802 -5.76999 -16.8891
1 -2.33401 7.21249 -17.7806
1 -2.33401 4.32749 -17.7806
1 -2.33401 1.4425 -17.7806
1 -2.33401 -1.4425 -17.7806
1 -2.33401 -4.32749 -17.7806
1 -2.33401 -7.21249 -17.7806
1 15.4466 3.77651 -10.989
1 14.555 6.11052 -9.5465
1 13.1126 5.21901 -11.8805
1 13.6635 8.44453 -8.104
1 12.221 7.55302 -10.438
1 10.7785 6.6615 -12.772
1 12.772 10.7785 -6.6615
1 11.3295 9.88703 -8.99551
1 9.88703 8.99551 -11.3295
1 8.44453 8.104 -13.6635
1 11.8805 13.1126 -5.21901
1 10.438 12.221 -7.55302
1 8.99551 11.3295 -9.88703
1 7.55302 10.438 -12.221
1 6.11052 9.5465 -14.555
1 10.989 15.4466 -3.77651
1 9.5465 14.555 -6.11052
1 8.104 13.6635 -8.44453
1 6.6615 12.772 -10.7785
1 5.21901 11.8805 -13.1126
1 3.77651 10.989 -15.4466
1 14.0041 0 -13.323
1 11.67 1.4425 -14.2145
1 11.67 -1.4425 -14.2145
1 9.33604 2.885 -15.106
1 9.33604 0 -15.106
1 9.33604 -2.885 -15.106
1 7.00203 4.32749 -15.9976
1 7.00203 1.4425 -15.9976
1 7.00203 -1.4425 -15.9976
1 7.00203 -4.32749 -15.9976
1 4.66802 5.76999 -16.8891
1 4.66802 2.885 -16.8891
1 4.66802 0 -16.8891
1 4.66802 -2.885 -16.8891
1 4.66802 -5.76999 -16.8891
1 2.33401 7.21249 -17.7806
1 2.33401 4.32749 -17.7806
1 2.33401 1.4425 -17.7806
1 2.33401 -1.4425 -17.7806
1 2.33401 -4.32749 -17.7806
1 2.33401 -7.21249 -17.7806
1 15.4466 -3.77651 -10.989
1 14.555 -6.11052 -9.5465
1 13.1126 -5.21901 -11.8805
1 13.6635 -8.44453 -8.104
1 12.221 -7.55302 -10.438
1 10.7785 -6.6615 -12.772
1 12.772 -10.7785 -6.6615
1 11.3295 -9.88703 -8.99551
1 9.88703 -8.99551 -11.3295
1 8.44453 -8.104 -13.6635
1 11.8805 -13.1126 -5.21901
1 10.438 -12.221 -7.55302
1 8.99551 -11.3295 -9.88703
1 7.55302 -10.438 -12.221
1 6.11052 -9.5465 -14.555
1 10.989 -15.4466 -3.77651
1 9.5465 -14.555 -6.11052
1 8.104 -13.6635 -8.44453
1 6.6615 -12.772 -10.7785
1 5.21901 -11.8805 -13.1126
1 3.77651 -10.989 -15.4466
1 -15.4466 -3.77651 10.989
1 -13.1126 -5.21901 11.8805
1 -14.555 -6.11052 9.5465
1 -10.7785 -6.6615 12.772
1 -12.221 -7.55302 10.438
1 -13.6635 -8.44453 8.104
1 -8.44453 -8.104 13.6635
1 -9.88703 -8.99551 11.3295
1 -11.3295 -9.88703 8.99551
1 -12.772 -10.7785 6.6615
1 -6.11052 -9.5465 14.555
1 -7.55302 -10.438 12.221
1 -8.99551 -11.3295 9.88703
1 -10.438 -12.221 7.55302
1 -11.8805 -13.1126 5.21901
1 -3.77651 -10.989 15.4466
1 -5.21901 -11.8805 13.1126
1 -6.6615 -12.772 10.7785
1 -8.104 -13.6635 8.44453
1 -9.5465 -14.555 6.11052
1 -10.989 -15.4466 3.77651
1 -14.0041 0 13.323
1 -11.67 1.4425 14.2145
1 -11.67 -1.4425 14.2145
1 -9.33604 2.885 15.106
1 -9.33604 0 15.106
1 -9.33604 -2.885 15.106
1 -7.00203 4.32749 15.9976
1 -7.00203 1.4425 15.9976
1 -7.00203 -1.4425 15.9976
1 -7.00203 -4.32749 15.9976
1 -4.66802 5.76999 16.8891
1 -4.66802 2.885 16.8891
1 -4.66802 0 16.8891
1 -4.66802 -2.885 16.8891
1 -4.66802 -5.76999 16.8891
1 -2.33401 7.21249 17.7806
1 -2.33401 4.32749 17.7806
1 -2.33401 1.4425 17.7806
1 -2.33401 -1.4425 17.7806
1 -2.33401 -4.32749 17.7806
1 -2.33401 -7.21249 17.7806
1 -15.4466 3.77651 10.989
1 -14.555 6.11052 9.5465
1 -13.1126 5.21901 11.8805
1 -13.6635 8.44453 8.104
1 -12.221 7.55302 10.438
1 -10.7785 6.6615 12.772
1 -12.772 10.7785 6.6615
1 -11.3295 9.88703 8.99551
1 -9.88703 8.99551 11.3295
1 -8.44453 8.104 13.6635
1 -11.8805 13.1126 5.21901
1 -10.438 12.221 7.55302
1 -8.99551 11.3295 9.88703
1 -7.55302 10.438 12.221
1 -6.11052 9.5465 14.555
1 -10.989 15.4466 3.77651
1 -9.5465 14.555 6.11052
1 -8.104 13.6635 8.44453
1 -6.6615 12.772 10.7785
1 -5.21901 11.8805 13.1126
1 -3.77651 10.989 15.4466
1 7.21249 17.7806 -2.33401
1 4.32749 17.7806 -2.33401
1 5.76999 16.8891 -4.66802
1 1.4425 17.7806 -2.33401
1 2.885 16.8891 -4.66802
1 4.32749 15.9976 -7.00203
1 -1.4425 17.7806 -2.33401
1 0 16.8891 -4.66802
1 1.4425 15.9976 -7.00203
1 2.885 15.106 -9.33604
1 -4.32749 17.7806 -2.33401
1 -2.885 16.8891 -4.66802
1 -1.4425 15.9976 -7.00203
1 0 15.106 -9.33604
1 1.4425 14.2145 -11.67
1 -7.21249 17.7806 -2.33401
1 -5.76999 16.8891 -4.66802
1 -4.32749 15.9976 -7.00203
1 -2.885 15.106 -9.33604
1 -1.4425 14.2145 -11.67
1 0 13.323 -14.0041
1 7.21249 17.7806 2.33401
1 4.32749 17.7806 2.33401
1 5.76999 16.8891 4.66802
1 1.4425 17.7806 2.33401
1 2.885 16.8891 4.66802
1 4.32749 15.9976 7.00203
1 -1.4425 17.7806 2.33401
1 0 16.8891 4.66802
1 1.4425 15.9976 7.00203
1 2.885 15.106 9.33604
1 -4.32749 17.7806 2.33401
1 -2.885 16.8891 4.66802
1 -1.4425 15.9976 7.00203
1 0 15.106 9.33604
1 1.4425 14.2145 11.67
1 -7.21249 17.7806 2.33401
1 -5.76999 16.8891 4.66802
1 -4.32749 15.9976 7.00203
1 -2.885 15.106 9.33604
1 -1.4425 14.2145 11.67
1 0 13.323 14.0041
1 -7.21249 -17.7806 2.33401
1 -5.76999 -16.8891 4.66802
1 -4.32749 -17.7806 2.33401
1 -4.32749 -15.9976 7.00203
1 -2.885 -16.8891 4.66802
1 -1.4425 -17.7806 2.33401
1 -2.885 -15.106 9.33604
1 -1.4425 -15.9976 7.00203
1 0 -16.8891 4.66802
1 1.4425 -17.7806 2.33401
1 -1.4425 -14.2145 11.67
1 0 -15.106 9.33604
1 1.4425 -15.9976 7.00203
1 2.885 -16.8891 4.66802
1 4.32749 -17.7806 2.33401
1 0 -13.323 14.0041
1 1.4425 -14.2145 11.67
1 2.885 -15.106 9.33604
1 4.32749 -15.9976 7.00203
1 5.76999 -16.8891 4.66802
1 7.21249 -17.7806 2.33401
1 -7.21249 -17.7806 -2.33401
1 -4.32749 -17.7806 -2.33401
1 -5.76999 -16.8891 -4.66802
1 -1.4425 -17.7806 -2.33401
1 -2.885 -16.8891 -4.66802
1 -4.32749 -15.9976 -7.00203
1 1.4425 -17.7806 -2.33401
1 0 -16.8891 -4.66802
1 -1.4425 -15.9976 -7.00203
1 -2.885 -15.106 -9.33604
1 4.32749 -17.7806 -2.33401
1 2.885 -16.8891 -4.66802
1 1.4425 -15.9976 -7.00203
1 0 -15.106 -9.33604
1 -1.4425 -14.2145 -11.67
1 7.21249 -17.7806 -2.33401
1 5.76999 -16.8891 -4.66802
1 4.32749 -15.9976 -7.00203
1 2.885 -15.106 -9.33604
1 1.4425 -14.2145 -11.67
1 0 -13.323 -14.0041
1 21.0061 0 12.9825
1 21.0061 0 -12.9825
1 12.9825 21.0061 0
1 -12.9825 21.0061 0
1 0 12.9825 21.0061
1 0 -12.9825 21.0061
1 12.9825 -21.0061 0
1 0 12.9825 -21.0061
1 -21.0061 0 12.9825
1 0 -12.9825 -21.0061
1 -21.0061 0 -12.9825
1 -12.9825 -21.0061 0
1 21.0061 0 10.0975
1 21.0061 0 7.21249
1 21.0061 0 4.32749
1 21.0061 0 1.4425
1 21.0061 0 -1.4425
1 21.0061 0 -4.32749
1 21.0061 0 -7.21249
1 21.0061 0 -10.0975
1 20.1146 2.33401 11.54
1 19.2231 4.66802 10.0975
1 18.3316 7.00203 8.65499
1 17.44 9.33604 7.21249
1 16.5485 11.67 5.76999
1 15.657 14.0041 4.32749
1 14.7655 16.3381 2.885
1 13.874 18.6721 1.4425
1 18.6721 1.4425 13.874
1 16.3381 2.885 14.7655
1 14.0041 4.32749 15.657
1 11.67 5.76999 16.5485
1 9.33604 7.21249 17.44
1 7.00203 8.65499 18.3316
1 4.66802 10.0975 19.2231
1 2.33401 11.54 20.1146
1 18.6721 -1.4425 13.874
1 16.3381 -2.885 14.7655
1 14.0041 -4.32749 15.657
1 11.67 -5.76999 16.5485
1 9.33604 -7.21249 17.44
1 7.00203 -8.65499 18.3316
1 4.66802 -10.0975 19.2231
1 2.33401 -11.54 20.1146
1 20.1146 -2.33401 11.54
1 19.2231 -4.66802 10.0975
1 18.3316 -7.00203 8.65499
1 17.44 -9.33604 7.21249
1 16.5485 -11.67 5.76999
1 15.657 -14.0041 4.32749
1 14.7655 -16.3381 2.885
1 13.874 -18.6721 1.4425
1 -20.1146 2.33401 -11.54