LAMMPS Description

1964  atoms
16  bonds
14  angles
12  dihedrals
0  impropers

6  atom types
4  bond types
4  angle types
4  dihedral types

-50.0 50.0 xlo xhi
-50.0 50.0 ylo yhi
-50.0 50.0 zlo zhi

Masses

1 107.8682
2 14.02658
3 15.03452
4 32.065
5 15.9994
6 1.00794

Atoms

1 1 1 0. 16.33807 0.00000 10.09748
2 2 1 0. 16.33807 0.00000 -10.09748
3 3 1 0. 10.09748 16.33807 0.00000
4 4 1 0. -10.09748 16.33807 0.00000
5 5 1 0. 0.00000 10.09748 16.33807
6 6 1 0. 0.00000 -10.09748 16.33807
7 7 1 0. 10.09748 -16.33807 0.00000
8 8 1 0. 0.00000 10.09748 -16.33807
9 9 1 0. -16.33807 0.00000 10.09748
10 10 1 0. 0.00000 -10.09748 -16.33807
11 11 1 0. -16.33807 0.00000 -10.09748
12 12 1 0. -10.09748 -16.33807 0.00000
13 13 1 0. 16.33807 0.00000 7.21249
14 14 1 0. 16.33807 0.00000 4.32749
15 15 1 0. 16.33807 0.00000 1.44250
16 16 1 0. 16.33807 0.00000 -1.44250
17 17 1 0. 16.33807 0.00000 -4.32749
18 18 1 0. 16.33807 0.00000 -7.21249
19 19 1 0. 15.44656 2.33401 8.65499
20 20 1 0. 14.55505 4.66802 7.21249
21 21 1 0. 13.66354 7.00203 5.76999
22 22 1 0. 12.77202 9.33604 4.32749
23 23 1 0. 11.88051 11.67005 2.88500
24 24 1 0. 10.98900 14.00406 1.44250
25 25 1 0. 14.00406 1.44250 10.98900
26 26 1 0. 11.67005 2.88500 11.88051
27 27 1 0. 9.33604 4.32749 12.77202
28 28 1 0. 7.00203 5.76999 13.66354
29 29 1 0. 4.66802 7.21249 14.55505
30 30 1 0. 2.33401 8.65499 15.44656
31 31 1 0. 14.00406 -1.44250 10.98900
32 32 1 0. 11.67005 -2.88500 11.88051
33 33 1 0. 9.33604 -4.32749 12.77202
34 34 1 0. 7.00203 -5.76999 13.66354
35 35 1 0. 4.66802 -7.21249 14.55505
36 36 1 0. 2.33401 -8.65499 15.44656
37 37 1 0. 15.44656 -2.33401 8.65499
38 38 1 0. 14.55505 -4.66802 7.21249
39 39 1 0. 13.66354 -7.00203 5.76999
40 40 1 0. 12.77202 -9.33604 4.32749
41 41 1 0. 11.88051 -11.67005 2.88500
42 42 1 0. 10.98900 -14.00406 1.44250
43 43 1 0. -15.44656 2.33401 -8.65499
44 44 1 0. -14.55505 4.66802 -7.21249
45 45 1 0. -13.66354 7.00203 -5.76999
46 46 1 0. -12.77202 9.33604 -4.32749
47 47 1 0. -11.88051 11.67005 -2.88500
48 48 1 0. -10.98900 14.00406 -1.44250
49 49 1 0. -14.00406 1.44250 -10.98900
50 50 1 0. -11.67005 2.88500 -11.88051
51 51 1 0. -9.33604 4.32749 -12.77202
52 52 1 0. -7.00203 5.76999 -13.66354
53 53 1 0. -4.66802 7.21249 -14.55505
54 54 1 0. -2.33401 8.65499 -15.44656
55 55 1 0. -16.33807 0.00000 -7.21249
56 56 1 0. -16.33807 0.00000 -4.32749
57 57 1 0. -16.33807 0.00000 -1.44250
58 58 1 0. -16.33807 0.00000 1.44250
59 59 1 0. -16.33807 0.00000 4.32749
60 60 1 0. -16.33807 0.00000 7.21249
61 61 1 0. -14.00406 -1.44250 -10.98900
62 62 1 0. -11.67005 -2.88500 -11.88051
63 63 1 0. -9.33604 -4.32749 -12.77202
64 64 1 0. -7.00203 -5.76999 -13.66354
65 65 1 0. -4.66802 -7.21249 -14.55505
66 66 1 0. -2.33401 -8.65499 -15.44656
67 67 1 0. -15.44656 -2.33401 -8.65499
68 68 1 0. -14.55505 -4.66802 -7.21249
69 69 1 0. -13.66354 -7.00203 -5.76999
70 70 1 0. -12.77202 -9.33604 -4.32749
71 71 1 0. -11.88051 -11.67005 -2.88500
72 72 1 0. -10.98900 -14.00406 -1.44250
73 73 1 0. 15.44656 2.33401 -8.65499
74 74 1 0. 14.55505 4.66802 -7.21249
75 75 1 0. 13.66354 7.00203 -5.76999
76 76 1 0. 12.77202 9.33604 -4.32749
77 77 1 0. 11.88051 11.67005 -2.88500
78 78 1 0. 10.98900 14.00406 -1.44250
79 79 1 0. 15.44656 -2.33401 -8.65499
80 80 1 0. 14.55505 -4.66802 -7.21249
81 81 1 0. 13.66354 -7.00203 -5.76999
82 82 1 0. 12.77202 -9.33604 -4.32749
83 83 1 0. 11.88051 -11.67005 -2.88500
84 84 1 0. 10.98900 -14.00406 -1.44250
85 85 1 0. 14.00406 1.44250 -10.98900
86 86 1 0. 11.67005 2.88500 -11.88051
87 87 1 0. 9.33604 4.32749 -12.77202
88 88 1 0. 7.00203 5.76999 -13.66354
89 89 1 0. 4.66802 7.21249 -14.55505
90 90 1 0. 2.33401 8.65499 -15.44656
91 91 1 0. 14.00406 -1.44250 -10.98900
92 92 1 0. 11.67005 -2.88500 -11.88051
93 93 1 0. 9.33604 -4.32749 -12.77202
94 94 1 0. 7.00203 -5.76999 -13.66354
95 95 1 0. 4.66802 -7.21249 -14.55505
96 96 1 0. 2.33401 -8.65499 -15.44656
97 97 1 0. -15.44656 2.33401 8.65499
98 98 1 0. -14.55505 4.66802 7.21249
99 99 1 0. -13.66354 7.00203 5.76999
100 100 1 0. -12.77202 9.33604 4.32749
101 101 1 0. -11.88051 11.67005 2.88500
102 102 1 0. -10.98900 14.00406 1.44250
103 103 1 0. -14.00406 1.44250 10.98900
104 104 1 0. -11.67005 2.88500 11.88051
105 105 1 0. -9.33604 4.32749 12.77202
106 106 1 0. -7.00203 5.76999 13.66354
107 107 1 0. -4.66802 7.21249 14.55505
108 108 1 0. -2.33401 8.65499 15.44656
109 109 1 0. -14.00406 -1.44250 10.98900
110 110 1 0. -11.67005 -2.88500 11.88051
111 111 1 0. -9.33604 -4.32749 12.77202
112 112 1 0. -7.00203 -5.76999 13.66354
113 113 1 0. -4.66802 -7.21249 14.55505
114 114 1 0. -2.33401 -8.65499 15.44656
115 115 1 0. -15.44656 -2.33401 8.65499
116 116 1 0. -14.55505 -4.66802 7.21249
117 117 1 0. -13.66354 -7.00203 5.76999
118 118 1 0. -12.77202 -9.33604 4.32749
119 119 1 0. -11.88051 -11.67005 2.88500
120 120 1 0. -10.98900 -14.00406 1.44250
121 121 1 0. 7.21249 16.33807 0.00000
122 122 1 0. 4.32749 16.33807 0.00000
123 123 1 0. 1.44250 16.33807 0.00000
124 124 1 0. -1.44250 16.33807 0.00000
125 125 1 0. -4.32749 16.33807 0.00000
126 126 1 0. -7.21249 16.33807 0.00000
127 127 1 0. 8.65499 15.44656 2.33401
128 128 1 0. 7.21249 14.55505 4.66802
129 129 1 0. 5.76999 13.66354 7.00203
130 130 1 0. 4.32749 12.77202 9.33604
131 131 1 0. 2.88500 11.88051 11.67005
132 132 1 0. 1.44250 10.98900 14.00406
133 133 1 0. 8.65499 15.44656 -2.33401
134 134 1 0. 7.21249 14.55505 -4.66802
135 135 1 0. 5.76999 13.66354 -7.00203
136 136 1 0. 4.32749 12.77202 -9.33604
137 137 1 0. 2.88500 11.88051 -11.67005
138 138 1 0. 1.44250 10.98900 -14.00406
139 139 1 0. -8.65499 -15.44656 2.33401
140 140 1 0. -7.21249 -14.55505 4.66802
141 141 1 0. -5.76999 -13.66354 7.00203
142 142 1 0. -4.32749 -12.77202 9.33604
143 143 1 0. -2.88500 -11.88051 11.67005
144 144 1 0. -1.44250 -10.98900 14.00406
145 145 1 0. -7.21249 -16.33807 0.00000
146 146 1 0. -4.32749 -16.33807 0.00000
147 147 1 0. -1.44250 -16.33807 0.00000
148 148 1 0. 1.44250 -16.33807 0.00000
149 149 1 0. 4.32749 -16.33807 0.00000
150 150 1 0. 7.21249 -16.33807 0.00000
151 151 1 0. -8.65499 -15.44656 -2.33401
152 152 1 0. -7.21249 -14.55505 -4.66802
153 153 1 0. -5.76999 -13.66354 -7.00203
154 154 1 0. -4.32749 -12.77202 -9.33604
155 155 1 0. -2.88500 -11.88051 -11.67005
156 156 1 0. -1.44250 -10.98900 -14.00406
157 157 1 0. 8.65499 -15.44656 2.33401
158 158 1 0. 7.21249 -14.55505 4.66802
159 159 1 0. 5.76999 -13.66354 7.00203
160 160 1 0. 4.32749 -12.77202 9.33604
161 161 1 0. 2.88500 -11.88051 11.67005
162 162 1 0. 1.44250 -10.98900 14.00406
163 163 1 0. 8.65499 -15.44656 -2.33401
164 164 1 0. 7.21249 -14.55505 -4.66802
165 165 1 0. 5.76999 -13.66354 -7.00203
166 166 1 0. 4.32749 -12.77202 -9.33604
167 167 1 0. 2.88500 -11.88051 -11.67005
168 168 1 0. 1.44250 -10.98900 -14.00406
169 169 1 0. -8.65499 15.44656 2.33401
170 170 1 0. -7.21249 14.55505 4.66802
171 171 1 0. -5.76999 13.66354 7.00203
172 172 1 0. -4.32749 12.77202 9.33604
173 173 1 0. -2.88500 11.88051 11.67005
174 174 1 0. -1.44250 10.98900 14.00406
175 175 1 0. -8.65499 15.44656 -2.33401
176 176 1 0. -7.21249 14.55505 -4.66802
177 177 1 0. -5.76999 13.66354 -7.00203
178 178 1 0. -4.32749 12.77202 -9.33604
179 179 1 0. -2.88500 11.88051 -11.67005
180 180 1 0. -1.44250 10.98900 -14.00406
181 181 1 0. 0.00000 7.21249 -16.33807
182 182 1 0. 0.00000 4.32749 -16.33807
183 183 1 0. 0.00000 1.44250 -16.33807
184 184 1 0. 0.00000 -1.44250 -16.33807
185 185 1 0. 0.00000 -4.32749 -16.33807
186 186 1 0. 0.00000 -7.21249 -16.33807
187 187 1 0. 0.00000 -7.21249 16.33807
188 188 1 0. 0.00000 -4.32749 16.33807
189 189 1 0. 0.00000 -1.44250 16.33807
190 190 1 0. 0.00000 1.44250 16.33807
191 191 1 0. 0.00000 4.32749 16.33807
192 192 1 0. 0.00000 7.21249 16.33807
193 193 1 0. 15.44656 2.33401 5.76999
194 194 1 0. 15.44656 2.33401 2.88500
195 195 1 0. 14.55505 4.66802 4.32749
196 196 1 0. 15.44656 2.33401 0.00000
197 197 1 0. 14.55505 4.66802 1.44250
198 198 1 0. 13.66354 7.00203 2.88500
199 199 1 0. 15.44656 2.33401 -2.88500
200 200 1 0. 14.55505 4.66802 -1.44250
201 201 1 0. 13.66354 7.00203 0.00000
202 202 1 0. 12.77202 9.33604 1.44250
203 203 1 0. 15.44656 2.33401 -5.76999
204 204 1 0. 14.55505 4.66802 -4.32749
205 205 1 0. 13.66354 7.00203 -2.88500
206 206 1 0. 12.77202 9.33604 -1.44250
207 207 1 0. 11.88051 11.67005 0.00000
208 208 1 0. 13.11255 3.77651 9.54650
209 209 1 0. 12.22104 6.11052 8.10400
210 210 1 0. 10.77854 5.21901 10.43801
211 211 1 0. 11.32953 8.44453 6.66150
212 212 1 0. 9.88703 7.55302 8.99551
213 213 1 0. 8.44453 6.66150 11.32953
214 214 1 0. 10.43801 10.77854 5.21901
215 215 1 0. 8.99551 9.88703 7.55302
216 216 1 0. 7.55302 8.99551 9.88703
217 217 1 0. 6.11052 8.10400 12.22104
218 218 1 0. 9.54650 13.11255 3.77651
219 219 1 0. 8.10400 12.22104 6.11052
220 220 1 0. 6.66150 11.32953 8.44453
221 221 1 0. 5.21901 10.43801 10.77854
222 222 1 0. 3.77651 9.54650 13.11255
223 223 1 0. 11.67005 0.00000 11.88051
224 224 1 0. 9.33604 1.44250 12.77202
225 225 1 0. 9.33604 -1.44250 12.77202
226 226 1 0. 7.00203 2.88500 13.66354
227 227 1 0. 7.00203 0.00000 13.66354
228 228 1 0. 7.00203 -2.88500 13.66354
229 229 1 0. 4.66802 4.32749 14.55505
230 230 1 0. 4.66802 1.44250 14.55505
231 231 1 0. 4.66802 -1.44250 14.55505
232 232 1 0. 4.66802 -4.32749 14.55505
233 233 1 0. 2.33401 5.76999 15.44656
234 234 1 0. 2.33401 2.88500 15.44656
235 235 1 0. 2.33401 0.00000 15.44656
236 236 1 0. 2.33401 -2.88500 15.44656
237 237 1 0. 2.33401 -5.76999 15.44656
238 238 1 0. 13.11255 -3.77651 9.54650
239 239 1 0. 10.77854 -5.21901 10.43801
240 240 1 0. 12.22104 -6.11052 8.10400
241 241 1 0. 8.44453 -6.66150 11.32953
242 242 1 0. 9.88703 -7.55302 8.99551
243 243 1 0. 11.32953 -8.44453 6.66150
244 244 1 0. 6.11052 -8.10400 12.22104
245 245 1 0. 7.55302 -8.99551 9.88703
246 246 1 0. 8.99551 -9.88703 7.55302
247 247 1 0. 10.43801 -10.77854 5.21901
248 248 1 0. 3.77651 -9.54650 13.11255
249 249 1 0. 5.21901 -10.43801 10.77854
250 250 1 0. 6.66150 -11.32953 8.44453
251 251 1 0. 8.10400 -12.22104 6.11052
252 252 1 0. 9.54650 -13.11255 3.77651
253 253 1 0. 15.44656 -2.33401 5.76999
254 254 1 0. 15.44656 -2.33401 2.88500
255 255 1 0. 14.55505 -4.66802 4.32749
256 256 1 0. 15.44656 -2.33401 0.00000
257 257 1 0. 14.55505 -4.66802 1.44250
258 258 1 0. 13.66354 -7.00203 2.88500
259 259 1 0. 15.44656 -2.33401 -2.88500
260 260 1 0. 14.55505 -4.66802 -1.44250
261 261 1 0. 13.66354 -7.00203 0.00000
262 262 1 0. 12.77202 -9.33604 1.44250
263 263 1 0. 15.44656 -2.33401 -5.76999
264 264 1 0. 14.55505 -4.66802 -4.32749
265 265 1 0. 13.66354 -7.00203 -2.88500
266 266 1 0. 12.77202 -9.33604 -1.44250
267 267 1 0. 11.88051 -11.67005 0.00000
268 268 1 0. -13.11255 3.77651 -9.54650
269 269 1 0. -12.22104 6.11052 -8.10400
270 270 1 0. -10.77854 5.21901 -10.43801
271 271 1 0. -11.32953 8.44453 -6.66150
272 272 1 0. -9.88703 7.55302 -8.99551
273 273 1 0. -8.44453 6.66150 -11.32953
274 274 1 0. -10.43801 10.77854 -5.21901
275 275 1 0. -8.99551 9.88703 -7.55302
276 276 1 0. -7.55302 8.99551 -9.88703
277 277 1 0. -6.11052 8.10400 -12.22104
278 278 1 0. -9.54650 13.11255 -3.77651
279 279 1 0. -8.10400 12.22104 -6.11052
280 280 1 0. -6.66150 11.32953 -8.44453
281 281 1 0. -5.21901 10.43801 -10.77854
282 282 1 0. -3.77651 9.54650 -13.11255
283 283 1 0. -15.44656 2.33401 -5.76999
284 284 1 0. -14.55505 4.66802 -4.32749
285 285 1 0. -15.44656 2.33401 -2.88500
286 286 1 0. -13.66354 7.00203 -2.88500
287 287 1 0. -14.55505 4.66802 -1.44250
288 288 1 0. -15.44656 2.33401 0.00000
289 289 1 0. -12.77202 9.33604 -1.44250
290 290 1 0. -13.66354 7.00203 0.00000
291 291 1 0. -14.55505 4.66802 1.44250
292 292 1 0. -15.44656 2.33401 2.88500
293 293 1 0. -11.88051 11.67005 0.00000
294 294 1 0. -12.77202 9.33604 1.44250
295 295 1 0. -13.66354 7.00203 2.88500
296 296 1 0. -14.55505 4.66802 4.32749
297 297 1 0. -15.44656 2.33401 5.76999
298 298 1 0. -15.44656 -2.33401 -5.76999
299 299 1 0. -15.44656 -2.33401 -2.88500
300 300 1 0. -14.55505 -4.66802 -4.32749
301 301 1 0. -15.44656 -2.33401 0.00000
302 302 1 0. -14.55505 -4.66802 -1.44250
303 303 1 0. -13.66354 -7.00203 -2.88500
304 304 1 0. -15.44656 -2.33401 2.88500
305 305 1 0. -14.55505 -4.66802 1.44250
306 306 1 0. -13.66354 -7.00203 0.00000
307 307 1 0. -12.77202 -9.33604 -1.44250
308 308 1 0. -15.44656 -2.33401 5.76999
309 309 1 0. -14.55505 -4.66802 4.32749
310 310 1 0. -13.66354 -7.00203 2.88500
311 311 1 0. -12.77202 -9.33604 1.44250
312 312 1 0. -11.88051 -11.67005 0.00000
313 313 1 0. -13.11255 -3.77651 -9.54650
314 314 1 0. -10.77854 -5.21901 -10.43801
315 315 1 0. -12.22104 -6.11052 -8.10400
316 316 1 0. -8.44453 -6.66150 -11.32953
317 317 1 0. -9.88703 -7.55302 -8.99551
318 318 1 0. -11.32953 -8.44453 -6.66150
319 319 1 0. -6.11052 -8.10400 -12.22104
320 320 1 0. -7.55302 -8.99551 -9.88703
321 321 1 0. -8.99551 -9.88703 -7.55302
322 322 1 0. -10.43801 -10.77854 -5.21901
323 323 1 0. -3.77651 -9.54650 -13.11255
324 324 1 0. -5.21901 -10.43801 -10.77854
325 325 1 0. -6.66150 -11.32953 -8.44453
326 326 1 0. -8.10400 -12.22104 -6.11052
327 327 1 0. -9.54650 -13.11255 -3.77651
328 328 1 0. -11.67005 0.00000 -11.88051
329 329 1 0. -9.33604 1.44250 -12.77202
330 330 1 0. -9.33604 -1.44250 -12.77202
331 331 1 0. -7.00203 2.88500 -13.66354
332 332 1 0. -7.00203 0.00000 -13.66354
333 333 1 0. -7.00203 -2.88500 -13.66354
334 334 1 0. -4.66802 4.32749 -14.55505
335 335 1 0. -4.66802 1.44250 -14.55505
336 336 1 0. -4.66802 -1.44250 -14.55505
337 337 1 0. -4.66802 -4.32749 -14.55505
338 338 1 0. -2.33401 5.76999 -15.44656
339 339 1 0. -2.33401 2.88500 -15.44656
340 340 1 0. -2.33401 0.00000 -15.44656
341 341 1 0. -2.33401 -2.88500 -15.44656
342 342 1 0. -2.33401 -5.76999 -15.44656
343 343 1 0. 13.11255 3.77651 -9.54650
344 344 1 0. 12.22104 6.11052 -8.10400
345 345 1 0. 10.77854 5.21901 -10.43801
346 346 1 0. 11.32953 8.44453 -6.66150
347 347 1 0. 9.88703 7.55302 -8.99551
348 348 1 0. 8.44453 6.66150 -11.32953
349 349 1 0. 10.43801 10.77854 -5.21901
350 350 1 0. 8.99551 9.88703 -7.55302
351 351 1 0. 7.55302 8.99551 -9.88703
352 352 1 0. 6.11052 8.10400 -12.22104
353 353 1 0. 9.54650 13.11255 -3.77651
354 354 1 0. 8.10400 12.22104 -6.11052
355 355 1 0. 6.66150 11.32953 -8.44453
356 356 1 0. 5.21901 10.43801 -10.77854
357 357 1 0. 3.77651 9.54650 -13.11255
358 358 1 0. 11.67005 0.00000 -11.88051
359 359 1 0. 9.33604 1.44250 -12.77202
360 360 1 0. 9.33604 -1.44250 -12.77202
361 361 1 0. 7.00203 2.88500 -13.66354
362 362 1 0. 7.00203 0.00000 -13.66354
363 363 1 0. 7.00203 -2.88500 -13.66354
364 364 1 0. 4.66802 4.32749 -14.55505
365 365 1 0. 4.66802 1.44250 -14.55505
366 366 1 0. 4.66802 -1.44250 -14.55505
367 367 1 0. 4.66802 -4.32749 -14.55505
368 368 1 0. 2.33401 5.76999 -15.44656
369 369 1 0. 2.33401 2.88500 -15.44656
370 370 1 0. 2.33401 0.00000 -15.44656
371 371 1 0. 2.33401 -2.88500 -15.44656
372 372 1 0. 2.33401 -5.76999 -15.44656
373 373 1 0. 13.11255 -3.77651 -9.54650
374 374 1 0. 12.22104 -6.11052 -8.10400
375 375 1 0. 10.77854 -5.21901 -10.43801
376 376 1 0. 11.32953 -8.44453 -6.66150
377 377 1 0. 9.88703 -7.55302 -8.99551
378 378 1 0. 8.44453 -6.66150 -11.32953
379 379 1 0. 10.43801 -10.77854 -5.21901
380 380 1 0. 8.99551 -9.88703 -7.55302
381 381 1 0. 7.55302 -8.99551 -9.88703
382 382 1 0. 6.11052 -8.10400 -12.22104
383 383 1 0. 9.54650 -13.11255 -3.77651
384 384 1 0. 8.10400 -12.22104 -6.11052
385 385 1 0. 6.66150 -11.32953 -8.44453
386 386 1 0. 5.21901 -10.43801 -10.77854
387 387 1 0. 3.77651 -9.54650 -13.11255
388 388 1 0. -13.11255 -3.77651 9.54650
389 389 1 0. -10.77854 -5.21901 10.43801
390 390 1 0. -12.22104 -6.11052 8.10400
391 391 1 0. -8.44453 -6.66150 11.32953
392 392 1 0. -9.88703 -7.55302 8.99551
393 393 1 0. -11.32953 -8.44453 6.66150
394 394 1 0. -6.11052 -8.10400 12.22104
395 395 1 0. -7.55302 -8.99551 9.88703
396 396 1 0. -8.99551 -9.88703 7.55302
397 397 1 0. -10.43801 -10.77854 5.21901
398 398 1 0. -3.77651 -9.54650 13.11255
399 399 1 0. -5.21901 -10.43801 10.77854
400 400 1 0. -6.66150 -11.32953 8.44453
401 401 1 0. -8.10400 -12.22104 6.11052
402 402 1 0. -9.54650 -13.11255 3.77651
403 403 1 0. -11.67005 0.00000 11.88051
404 404 1 0. -9.33604 1.44250 12.77202
405 405 1 0. -9.33604 -1.44250 12.77202
406 406 1 0. -7.00203 2.88500 13.66354
407 407 1 0. -7.00203 0.00000 13.66354
408 408 1 0. -7.00203 -2.88500 13.66354
409 409 1 0. -4.66802 4.32749 14.55505
410 410 1 0. -4.66802 1.44250 14.55505
411 411 1 0. -4.66802 -1.44250 14.55505
412 412 1 0. -4.66802 -4.32749 14.55505
413 413 1 0. -2.33401 5.76999 15.44656
414 414 1 0. -2.33401 2.88500 15.44656
415 415 1 0. -2.33401 0.00000 15.44656
416 416 1 0. -2.33401 -2.88500 15.44656
417 417 1 0. -2.33401 -5.76999 15.44656
418 418 1 0. -13.11255 3.77651 9.54650
419 419 1 0. -12.22104 6.11052 8.10400
420 420 1 0. -10.77854 5.21901 10.43801
421 421 1 0. -11.32953 8.44453 6.66150
422 422 1 0. -9.88703 7.55302 8.99551
423 423 1 0. -8.44453 6.66150 11.32953
424 424 1 0. -10.43801 10.77854 5.21901
425 425 1 0. -8.99551 9.88703 7.55302
426 426 1 0. -7.55302 8.99551 9.88703
427 427 1 0. -6.11052 8.10400 12.22104
428 428 1 0. -9.54650 13.11255 3.77651
429 429 1 0. -8.10400 12.22104 6.11052
430 430 1 0. -6.66150 11.32953 8.44453
431 431 1 0. -5.21901 10.43801 10.77854
432 432 1 0. -3.77651 9.54650 13.11255
433 433 1 0. 5.76999 15.44656 -2.33401
434 434 1 0. 2.88500 15.44656 -2.33401
435 435 1 0. 4.32749 14.55505 -4.66802
436 436 1 0. 0.00000 15.44656 -2.33401
437 437 1 0. 1.44250 14.55505 -4.66802
438 438 1 0. 2.88500 13.66354 -7.00203
439 439 1 0. -2.88500 15.44656 -2.33401
440 440 1 0. -1.44250 14.55505 -4.66802
441 441 1 0. 0.00000 13.66354 -7.00203
442 442 1 0. 1.44250 12.77202 -9.33604
443 443 1 0. -5.76999 15.44656 -2.33401
444 444 1 0. -4.32749 14.55505 -4.66802
445 445 1 0. -2.88500 13.66354 -7.00203
446 446 1 0. -1.44250 12.77202 -9.33604
447 447 1 0. 0.00000 11.88051 -11.67005
448 448 1 0. 5.76999 15.44656 2.33401
449 449 1 0. 2.88500 15.44656 2.33401
450 450 1 0. 4.32749 14.55505 4.66802
451 451 1 0. 0.00000 15.44656 2.33401
452 452 1 0. 1.44250 14.55505 4.66802
453 453 1 0. 2.88500 13.66354 7.00203
454 454 1 0. -2.88500 15.44656 2.33401
455 455 1 0. -1.44250 14.55505 4.66802
456 456 1 0. 0.00000 13.66354 7.00203
457 457 1 0. 1.44250 12.77202 9.33604
458 458 1 0. -5.76999 15.44656 2.33401
459 459 1 0. -4.32749 14.55505 4.66802
460 460 1 0. -2.88500 13.66354 7.00203
461 461 1 0. -1.44250 12.77202 9.33604
462 462 1 0. 0.00000 11.88051 11.67005
463 463 1 0. -5.76999 -15.44656 2.33401
464 464 1 0. -4.32749 -14.55505 4.66802
465 465 1 0. -2.88500 -15.44656 2.33401
466 466 1 0. -2.88500 -13.66354 7.00203
467 467 1 0. -1.44250 -14.55505 4.66802
468 468 1 0. 0.00000 -15.44656 2.33401
469 469 1 0. -1.44250 -12.77202 9.33604
470 470 1 0. 0.00000 -13.66354 7.00203
471 471 1 0. 1.44250 -14.55505 4.66802
472 472 1 0. 2.88500 -15.44656 2.33401
473 473 1 0. 0.00000 -11.88051 11.67005
474 474 1 0. 1.44250 -12.77202 9.33604
475 475 1 0. 2.88500 -13.66354 7.00203
476 476 1 0. 4.32749 -14.55505 4.66802
477 477 1 0. 5.76999 -15.44656 2.33401
478 478 1 0. -5.76999 -15.44656 -2.33401
479 479 1 0. -2.88500 -15.44656 -2.33401
480 480 1 0. -4.32749 -14.55505 -4.66802
481 481 1 0. 0.00000 -15.44656 -2.33401
482 482 1 0. -1.44250 -14.55505 -4.66802
483 483 1 0. -2.88500 -13.66354 -7.00203
484 484 1 0. 2.88500 -15.44656 -2.33401
485 485 1 0. 1.44250 -14.55505 -4.66802
486 486 1 0. 0.00000 -13.66354 -7.00203
487 487 1 0. -1.44250 -12.77202 -9.33604
488 488 1 0. 5.76999 -15.44656 -2.33401
489 489 1 0. 4.32749 -14.55505 -4.66802
490 490 1 0. 2.88500 -13.66354 -7.00203
491 491 1 0. 1.44250 -12.77202 -9.33604
492 492 1 0. 0.00000 -11.88051 -11.67005
493 493 1 0. 18.67208 0.00000 11.53998
494 494 1 0. 18.67208 0.00000 -11.53998
495 495 1 0. 11.53998 18.67208 0.00000
496 496 1 0. -11.53998 18.67208 0.00000
497 497 1 0. 0.00000 11.53998 18.67208
498 498 1 0. 0.00000 -11.53998 18.67208
499 499 1 0. 11.53998 -18.67208 0.00000
500 500 1 0. 0.00000 11.53998 -18.67208
501 501 1 0. -18.67208 0.00000 11.53998
502 502 1 0. 0.00000 -11.53998 -18.67208
503 503 1 0. -18.67208 0.00000 -11.53998
504 504 1 0. -11.53998 -18.67208 0.00000
505 505 1 0. 18.67208 0.00000 8.65499
506 506 1 0. 18.67208 0.00000 5.76999
507 507 1 0. 18.67208 0.00000 2.88500
508 508 1 0. 18.67208 0.00000 0.00000
509 509 1 0. 18.67208 0.00000 -2.88500
510 510 1 0. 18.67208 0.00000 -5.76999
511 511 1 0. 18.67208 0.00000 -8.65499
512 512 1 0. 17.78057 2.33401 10.09748
513 513 1 0. 16.88906 4.66802 8.65499
514 514 1 0. 15.99755 7.00203 7.21249
515 515 1 0. 15.10603 9.33604 5.76999
516 516 1 0. 14.21452 11.67005 4.32749
517 517 1 0. 13.32301 14.00406 2.88500
518 518 1 0. 12.43150 16.33807 1.44250
519 519 1 0. 16.33807 1.44250 12.43150
520 520 1 0. 14.00406 2.88500 13.32301
521 521 1 0. 11.67005 4.32749 14.21452
522 522 1 0. 9.33604 5.76999 15.10603
523 523 1 0. 7.00203 7.21249 15.99755
524 524 1 0. 4.66802 8.65499 16.88906
525 525 1 0. 2.33401 10.09748 17.78057
526 526 1 0. 16.33807 -1.44250 12.43150
527 527 1 0. 14.00406 -2.88500 13.32301
528 528 1 0. 11.67005 -4.32749 14.21452
529 529 1 0. 9.33604 -5.76999 15.10603
530 530 1 0. 7.00203 -7.21249 15.99755
531 531 1 0. 4.66802 -8.65499 16.88906
532 532 1 0. 2.33401 -10.09748 17.78057
533 533 1 0. 17.78057 -2.33401 10.09748
534 534 1 0. 16.88906 -4.66802 8.65499
535 535 1 0. 15.99755 -7.00203 7.21249
536 536 1 0. 15.10603 -9.33604 5.76999
537 537 1 0. 14.21452 -11.67005 4.32749
538 538 1 0. 13.32301 -14.00406 2.88500
539 539 1 0. 12.43150 -16.33807 1.44250
540 540 1 0. -17.78057 2.33401 -10.09748
541 541 1 0. -16.88906 4.66802 -8.65499
542 542 1 0. -15.99755 7.00203 -7.21249
543 543 1 0. -15.10603 9.33604 -5.76999
544 544 1 0. -14.21452 11.67005 -4.32749
545 545 1 0. -13.32301 14.00406 -2.88500
546 546 1 0. -12.43150 16.33807 -1.44250
547 547 1 0. -16.33807 1.44250 -12.43150
548 548 1 0. -14.00406 2.88500 -13.32301
549 549 1 0. -11.67005 4.32749 -14.21452
550 550 1 0. -9.33604 5.76999 -15.10603
551 551 1 0. -7.00203 7.21249 -15.99755
552 552 1 0. -4.66802 8.65499 -16.88906
553 553 1 0. -2.33401 10.09748 -17.78057
554 554 1 0. -18.67208 0.00000 -8.65499
555 555 1 0. -18.67208 0.00000 -5.76999
556 556 1 0. -18.67208 0.00000 -2.88500
557 557 1 0. -18.67208 0.00000 0.00000
558 558 1 0. -18.67208 0.00000 2.88500
559 559 1 0. -18.67208 0.00000 5.76999
560 560 1 0. -18.67208 0.00000 8.65499
561 561 1 0. -16.33807 -1.44250 -12.43150
562 562 1 0. -14.00406 -2.88500 -13.32301
563 563 1 0. -11.67005 -4.32749 -14.21452
564 564 1 0. -9.33604 -5.76999 -15.10603
565 565 1 0. -7.00203 -7.21249 -15.99755
566 566 1 0. -4.66802 -8.65499 -16.88906
567 567 1 0. -2.33401 -10.09748 -17.78057
568 568 1 0. -17.78057 -2.33401 -10.09748
569 569 1 0. -16.88906 -4.66802 -8.65499
570 570 1 0. -15.99755 -7.00203 -7.21249
571 571 1 0. -15.10603 -9.33604 -5.76999
572 572 1 0. -14.21452 -11.67005 -4.32749
573 573 1 0. -13.32301 -14.00406 -2.88500
574 574 1 0. -12.43150 -16.33807 -1.44250
575 575 1 0. 17.78057 2.33401 -10.09748
576 576 1 0. 16.88906 4.66802 -8.65499
577 577 1 0. 15.99755 7.00203 -7.21249
578 578 1 0. 15.10603 9.33604 -5.76999
579 579 1 0. 14.21452 11.67005 -4.32749
580 580 1 0. 13.32301 14.00406 -2.88500
581 581 1 0. 12.43150 16.33807 -1.44250
582 582 1 0. 17.78057 -2.33401 -10.09748
583 583 1 0. 16.88906 -4.66802 -8.65499
584 584 1 0. 15.99755 -7.00203 -7.21249
585 585 1 0. 15.10603 -9.33604 -5.76999
586 586 1 0. 14.21452 -11.67005 -4.32749
587 587 1 0. 13.32301 -14.00406 -2.88500
588 588 1 0. 12.43150 -16.33807 -1.44250
589 589 1 0. 16.33807 1.44250 -12.43150
590 590 1 0. 14.00406 2.88500 -13.32301
591 591 1 0. 11.67005 4.32749 -14.21452
592 592 1 0. 9.33604 5.76999 -15.10603
593 593 1 0. 7.00203 7.21249 -15.99755
594 594 1 0. 4.66802 8.65499 -16.88906
595 595 1 0. 2.33401 10.09748 -17.78057
596 596 1 0. 16.33807 -1.44250 -12.43150
597 597 1 0. 14.00406 -2.88500 -13.32301
598 598 1 0. 11.67005 -4.32749 -14.21452
599 599 1 0. 9.33604 -5.76999 -15.10603
600 600 1 0. 7.00203 -7.21249 -15.99755
601 601 1 0. 4.66802 -8.65499 -16.88906
602 602 1 0. 2.33401 -10.09748 -17.78057
603 603 1 0. -17.78057 2.33401 10.09748
604 604 1 0. -16.88906 4.66802 8.65499
605 605 1 0. -15.99755 7.00203 7.21249
606 606 1 0. -15.10603 9.33604 5.76999
607 607 1 0. -14.21452 11.67005 4.32749
608 608 1 0. -13.32301 14.00406 2.88500
609 609 1 0. -12.43150 16.33807 1.44250
610 610 1 0. -16.33807 1.44250 12.43150
611 611 1 0. -14.00406 2.88500 13.32301
612 612 1 0. -11.67005 4.32749 14.21452
613 613 1 0. -9.33604 5.76999 15.10603
614 614 1 0. -7.00203 7.21249 15.99755
615 615 1 0. -4.66802 8.65499 16.88906
616 616 1 0. -2.33401 10.09748 17.78057
617 617 1 0. -16.33807 -1.44250 12.43150
618 618 1 0. -14.00406 -2.88500 13.32301
619 619 1 0. -11.67005 -4.32749 14.21452
620 620 1 0. -9.33604 -5.76999 15.10603
621 621 1 0. -7.00203 -7.21249 15.99755
622 622 1 0. -4.66802 -8.65499 16.88906
623 623 1 0. -2.33401 -10.09748 17.78057
624 624 1 0. -17.78057 -2.33401 10.09748
625 625 1 0. -16.88906 -4.66802 8.65499
626 626 1 0. -15.99755 -7.00203 7.21249
627 627 1 0. -15.10603 -9.33604 5.76999
628 628 1 0. -14.21452 -11.67005 4.32749
629 629 1 0. -13.32301 -14.00406 2.88500
630 630 1 0. -12.43150 -16.33807 1.44250
631 631 1 0. 8.65499 18.67208 0.00000
632 632 1 0. 5.76999 18.67208 0.00000
633 633 1 0. 2.88500 18.67208 0.00000
634 634 1 0. 0.00000 18.67208 0.00000
635 635 1 0. -2.88500 18.67208 0.00000
636 636 1 0. -5.76999 18.67208 0.00000
637 637 1 0. -8.65499 18.67208 0.00000
638 638 1 0. 10.09748 17.78057 2.33401
639 639 1 0. 8.65499 16.88906 4.66802
640 640 1 0. 7.21249 15.99755 7.00203
641 641 1 0. 5.76999 15.10603 9.33604
642 642 1 0. 4.32749 14.21452 11.67005
643 643 1 0. 2.88500 13.32301 14.00406
644 644 1 0. 1.44250 12.43150 16.33807
645 645 1 0. 10.09748 17.78057 -2.33401
646 646 1 0. 8.65499 16.88906 -4.66802
647 647 1 0. 7.21249 15.99755 -7.00203
648 648 1 0. 5.76999 15.10603 -9.33604
649 649 1 0. 4.32749 14.21452 -11.67005
650 650 1 0. 2.88500 13.32301 -14.00406
651 651 1 0. 1.44250 12.43150 -16.33807
652 652 1 0. -10.09748 -17.78057 2.33401
653 653 1 0. -8.65499 -16.88906 4.66802
654 654 1 0. -7.21249 -15.99755 7.00203
655 655 1 0. -5.76999 -15.10603 9.33604
656 656 1 0. -4.32749 -14.21452 11.67005
657 657 1 0. -2.88500 -13.32301 14.00406
658 658 1 0. -1.44250 -12.43150 16.33807
659 659 1 0. -8.65499 -18.67208 0.00000
660 660 1 0. -5.76999 -18.67208 0.00000
661 661 1 0. -2.88500 -18.67208 0.00000
662 662 1 0. 0.00000 -18.67208 0.00000
663 663 1 0. 2.88500 -18.67208 0.00000
664 664 1 0. 5.76999 -18.67208 0.00000
665 665 1 0. 8.65499 -18.67208 0.00000
666 666 1 0. -10.09748 -17.78057 -2.33401
667 667 1 0. -8.65499 -16.88906 -4.66802
668 668 1 0. -7.21249 -15.99755 -7.00203
669 669 1 0. -5.76999 -15.10603 -9.33604
670 670 1 0. -4.32749 -14.21452 -11.67005
671 671 1 0. -2.88500 -13.32301 -14.00406
672 672 1 0. -1.44250 -12.43150 -16.33807
673 673 1 0. 10.09748 -17.78057 2.33401
674 674 1 0. 8.65499 -16.88906 4.66802
675 675 1 0. 7.21249 -15.99755 7.00203
676 676 1 0. 5.76999 -15.10603 9.33604
677 677 1 0. 4.32749 -14.21452 11.67005
678 678 1 0. 2.88500 -13.32301 14.00406
679 679 1 0. 1.44250 -12.43150 16.33807
680 680 1 0. 10.09748 -17.78057 -2.33401
681 681 1 0. 8.65499 -16.88906 -4.66802
682 682 1 0. 7.21249 -15.99755 -7.00203
683 683 1 0. 5.76999 -15.10603 -9.33604
684 684 1 0. 4.32749 -14.21452 -11.67005
685 685 1 0. 2.88500 -13.32301 -14.00406
686 686 1 0. 1.44250 -12.43150 -16.33807
687 687 1 0. -10.09748 17.78057 2.33401
688 688 1 0. -8.65499 16.88906 4.66802
689 689 1 0. -7.21249 15.99755 7.00203
690 690 1 0. -5.76999 15.10603 9.33604
691 691 1 0. -4.32749 14.21452 11.67005
692 692 1 0. -2.88500 13.32301 14.00406
693 693 1 0. -1.44250 12.43150 16.33807
694 694 1 0. -10.09748 17.78057 -2.33401
695 695 1 0. -8.65499 16.88906 -4.66802
696 696 1 0. -7.21249 15.99755 -7.00203
697 697 1 0. -5.76999 15.10603 -9.33604
698 698 1 0. -4.32749 14.21452 -11.67005
699 699 1 0. -2.88500 13.32301 -14.00406
700 700 1 0. -1.44250 12.43150 -16.33807
701 701 1 0. 0.00000 8.65499 -18.67208
702 702 1 0. 0.00000 5.76999 -18.67208
703 703 1 0. 0.00000 2.88500 -18.67208
704 704 1 0. 0.00000 0.00000 -18.67208
705 705 1 0. 0.00000 -2.88500 -18.67208
706 706 1 0. 0.00000 -5.76999 -18.67208
707 707 1 0. 0.00000 -8.65499 -18.67208
708 708 1 0. 0.00000 -8.65499 18.67208
709 709 1 0. 0.00000 -5.76999 18.67208
710 710 1 0. 0.00000 -2.88500 18.67208
711 711 1 0. 0.00000 0.00000 18.67208
712 712 1 0. 0.00000 2.88500 18.67208
713 713 1 0. 0.00000 5.76999 18.67208
714 714 1 0. 0.00000 8.65499 18.67208
715 715 1 0. 17.78057 2.33401 7.21249
716 716 1 0. 17.78057 2.33401 4.32749
717 717 1 0. 16.88906 4.66802 5.76999
718 718 1 0. 17.78057 2.33401 1.44250
719 719 1 0. 16.88906 4.66802 2.88500
720 720 1 0. 15.99755 7.00203 4.32749
721 721 1 0. 17.78057 2.33401 -1.44250
722 722 1 0. 16.88906 4.66802 0.00000
723 723 1 0. 15.99755 7.00203 1.44250
724 724 1 0. 15.10603 9.33604 2.88500
725 725 1 0. 17.78057 2.33401 -4.32749
726 726 1 0. 16.88906 4.66802 -2.88500
727 727 1 0. 15.99755 7.00203 -1.44250
728 728 1 0. 15.10603 9.33604 0.00000
729 729 1 0. 14.21452 11.67005 1.44250
730 730 1 0. 17.78057 2.33401 -7.21249
731 731 1 0. 16.88906 4.66802 -5.76999
732 732 1 0. 15.99755 7.00203 -4.32749
733 733 1 0. 15.10603 9.33604 -2.88500
734 734 1 0. 14.21452 11.67005 -1.44250
735 735 1 0. 13.32301 14.00406 0.00000
736 736 1 0. 15.44656 3.77651 10.98900
737 737 1 0. 14.55505 6.11052 9.54650
738 738 1 0. 13.11255 5.21901 11.88051
739 739 1 0. 13.66354 8.44453 8.10400
740 740 1 0. 12.22104 7.55302 10.43801
741 741 1 0. 10.77854 6.66150 12.77202
742 742 1 0. 12.77202 10.77854 6.66150
743 743 1 0. 11.32953 9.88703 8.99551
744 744 1 0. 9.88703 8.99551 11.32953
745 745 1 0. 8.44453 8.10400 13.66354
746 746 1 0. 11.88051 13.11255 5.21901
747 747 1 0. 10.43801 12.22104 7.55302
748 748 1 0. 8.99551 11.32953 9.88703
749 749 1 0. 7.55302 10.43801 12.22104
750 750 1 0. 6.11052 9.54650 14.55505
751 751 1 0. 10.98900 15.44656 3.77651
752 752 1 0. 9.54650 14.55505 6.11052
753 753 1 0. 8.10400 13.66354 8.44453
754 754 1 0. 6.66150 12.77202 10.77854
755 755 1 0. 5.21901 11.88051 13.11255
756 756 1 0. 3.77651 10.98900 15.44656