LAMMPS Description

3974  atoms
2513  bonds
2312  angles
2111  dihedrals
0  impropers

6  atom types
4  bond types
4  angle types
5  dihedral types

-50.0 50.0 xlo xhi
-50.0 50.0 ylo yhi
-50.0 50.0 zlo zhi

Masses

1	107.8682
2	14.02658
3	15.03452
4		32.065
5		15.9994
6		1.00794

Atoms

1 1 1 0. -4.085 -10.2125 -18.3825
2 2 1 0. -2.0425 -12.255 -18.3825
3 3 1 0. 0 -12.255 -20.425
4 4 1 0. 0 -10.2125 -18.3825
5 5 1 0. 2.0425 -12.255 -18.3825
6 6 1 0. 4.085 -10.2125 -18.3825
7 7 1 0. -6.1275 -8.17 -18.3825
8 8 1 0. -4.085 -6.1275 -18.3825
9 9 1 0. -2.0425 -8.17 -18.3825
10 10 1 0. 0 -8.17 -20.425
11 11 1 0. 0 -6.1275 -18.3825
12 12 1 0. 2.0425 -8.17 -18.3825
13 13 1 0. 4.085 -6.1275 -18.3825
14 14 1 0. 6.1275 -8.17 -18.3825
15 15 1 0. -6.1275 -4.085 -18.3825
16 16 1 0. -4.085 -2.0425 -18.3825
17 17 1 0. -2.0425 -4.085 -18.3825
18 18 1 0. 0 -4.085 -20.425
19 19 1 0. 0 -2.0425 -18.3825
20 20 1 0. 2.0425 -4.085 -18.3825
21 21 1 0. 4.085 -2.0425 -18.3825
22 22 1 0. 6.1275 -4.085 -18.3825
23 23 1 0. -6.1275 0 -18.3825
24 24 1 0. -4.085 2.0425 -18.3825
25 25 1 0. -2.0425 0 -18.3825
26 26 1 0. 0 0 -20.425
27 27 1 0. 0 2.0425 -18.3825
28 28 1 0. 2.0425 0 -18.3825
29 29 1 0. 4.085 2.0425 -18.3825
30 30 1 0. 6.1275 0 -18.3825
31 31 1 0. -6.1275 4.085 -18.3825
32 32 1 0. -4.085 6.1275 -18.3825
33 33 1 0. -2.0425 4.085 -18.3825
34 34 1 0. 0 4.085 -20.425
35 35 1 0. 0 6.1275 -18.3825
36 36 1 0. 2.0425 4.085 -18.3825
37 37 1 0. 4.085 6.1275 -18.3825
38 38 1 0. 6.1275 4.085 -18.3825
39 39 1 0. -6.1275 8.17 -18.3825
40 40 1 0. -4.085 10.2125 -18.3825
41 41 1 0. -2.0425 8.17 -18.3825
42 42 1 0. 0 8.17 -20.425
43 43 1 0. 0 10.2125 -18.3825
44 44 1 0. 2.0425 8.17 -18.3825
45 45 1 0. 4.085 10.2125 -18.3825
46 46 1 0. 6.1275 8.17 -18.3825
47 47 1 0. -2.0425 12.255 -18.3825
48 48 1 0. 0 12.255 -20.425
49 49 1 0. 2.0425 12.255 -18.3825
50 50 1 0. -4.085 -14.2975 -14.2975
51 51 1 0. -2.0425 -14.2975 -16.34
52 52 1 0. 0 -14.2975 -14.2975
53 53 1 0. 2.0425 -14.2975 -16.34
54 54 1 0. 4.085 -14.2975 -14.2975
55 55 1 0. -8.17 -10.2125 -14.2975
56 56 1 0. -6.1275 -12.255 -14.2975
57 57 1 0. -6.1275 -10.2125 -16.34
58 58 1 0. -4.085 -12.255 -16.34
59 59 1 0. -4.085 -10.2125 -14.2975
60 60 1 0. -2.0425 -12.255 -14.2975
61 61 1 0. -2.0425 -10.2125 -16.34
62 62 1 0. 0 -12.255 -16.34
63 63 1 0. 2.0425 -12.255 -14.2975
64 64 1 0. 2.0425 -10.2125 -16.34
65 65 1 0. 4.085 -12.255 -16.34
66 66 1 0. 4.085 -10.2125 -14.2975
67 67 1 0. 6.1275 -12.255 -14.2975
68 68 1 0. 6.1275 -10.2125 -16.34
69 69 1 0. 8.17 -10.2125 -14.2975
70 70 1 0. -12.255 -6.1275 -14.2975
71 71 1 0. -10.2125 -8.17 -14.2975
72 72 1 0. -10.2125 -6.1275 -16.34
73 73 1 0. -8.17 -8.17 -16.34
74 74 1 0. -8.17 -6.1275 -14.2975
75 75 1 0. -6.1275 -8.17 -14.2975
76 76 1 0. -6.1275 -6.1275 -16.34
77 77 1 0. -4.085 -8.17 -16.34
78 78 1 0. -2.0425 -6.1275 -16.34
79 79 1 0. 0 -8.17 -16.34
80 80 1 0. 2.0425 -6.1275 -16.34
81 81 1 0. 4.085 -8.17 -16.34
82 82 1 0. 6.1275 -8.17 -14.2975
83 83 1 0. 6.1275 -6.1275 -16.34
84 84 1 0. 8.17 -8.17 -16.34
85 85 1 0. 8.17 -6.1275 -14.2975
86 86 1 0. 10.2125 -8.17 -14.2975
87 87 1 0. 10.2125 -6.1275 -16.34
88 88 1 0. 12.255 -6.1275 -14.2975
89 89 1 0. -16.34 -2.0425 -14.2975
90 90 1 0. -14.2975 -4.085 -14.2975
91 91 1 0. -12.255 -4.085 -16.34
92 92 1 0. -12.255 -2.0425 -14.2975
93 93 1 0. -10.2125 -4.085 -14.2975
94 94 1 0. -10.2125 -2.0425 -16.34
95 95 1 0. -8.17 -4.085 -16.34
96 96 1 0. -8.17 -2.0425 -14.2975
97 97 1 0. -6.1275 -4.085 -14.2975
98 98 1 0. -6.1275 -2.0425 -16.34
99 99 1 0. -4.085 -4.085 -16.34
100 100 1 0. -2.0425 -2.0425 -16.34
101 101 1 0. 0 -4.085 -16.34
102 102 1 0. 2.0425 -2.0425 -16.34
103 103 1 0. 4.085 -4.085 -16.34
104 104 1 0. 6.1275 -4.085 -14.2975
105 105 1 0. 6.1275 -2.0425 -16.34
106 106 1 0. 8.17 -4.085 -16.34
107 107 1 0. 8.17 -2.0425 -14.2975
108 108 1 0. 10.2125 -4.085 -14.2975
109 109 1 0. 10.2125 -2.0425 -16.34
110 110 1 0. 12.255 -4.085 -16.34
111 111 1 0. 12.255 -2.0425 -14.2975
112 112 1 0. 14.2975 -4.085 -14.2975
113 113 1 0. 16.34 -2.0425 -14.2975
114 114 1 0. -16.34 2.0425 -14.2975
115 115 1 0. -14.2975 0 -14.2975
116 116 1 0. -12.255 0 -16.34
117 117 1 0. -12.255 2.0425 -14.2975
118 118 1 0. -10.2125 0 -14.2975
119 119 1 0. -10.2125 2.0425 -16.34
120 120 1 0. -8.17 0 -16.34
121 121 1 0. -8.17 2.0425 -14.2975
122 122 1 0. -6.1275 0 -14.2975
123 123 1 0. -6.1275 2.0425 -16.34
124 124 1 0. -4.085 0 -16.34
125 125 1 0. -2.0425 2.0425 -16.34
126 126 1 0. 0 0 -16.34
127 127 1 0. 2.0425 2.0425 -16.34
128 128 1 0. 4.085 0 -16.34
129 129 1 0. 6.1275 0 -14.2975
130 130 1 0. 6.1275 2.0425 -16.34
131 131 1 0. 8.17 0 -16.34
132 132 1 0. 8.17 2.0425 -14.2975
133 133 1 0. 10.2125 0 -14.2975
134 134 1 0. 10.2125 2.0425 -16.34
135 135 1 0. 12.255 0 -16.34
136 136 1 0. 12.255 2.0425 -14.2975
137 137 1 0. 14.2975 0 -14.2975
138 138 1 0. 16.34 2.0425 -14.2975
139 139 1 0. -14.2975 4.085 -14.2975
140 140 1 0. -12.255 4.085 -16.34
141 141 1 0. -12.255 6.1275 -14.2975
142 142 1 0. -10.2125 4.085 -14.2975
143 143 1 0. -10.2125 6.1275 -16.34
144 144 1 0. -8.17 4.085 -16.34
145 145 1 0. -8.17 6.1275 -14.2975
146 146 1 0. -6.1275 4.085 -14.2975
147 147 1 0. -6.1275 6.1275 -16.34
148 148 1 0. -4.085 4.085 -16.34
149 149 1 0. -2.0425 6.1275 -16.34
150 150 1 0. 0 4.085 -16.34
151 151 1 0. 2.0425 6.1275 -16.34
152 152 1 0. 4.085 4.085 -16.34
153 153 1 0. 6.1275 4.085 -14.2975
154 154 1 0. 6.1275 6.1275 -16.34
155 155 1 0. 8.17 4.085 -16.34
156 156 1 0. 8.17 6.1275 -14.2975
157 157 1 0. 10.2125 4.085 -14.2975
158 158 1 0. 10.2125 6.1275 -16.34
159 159 1 0. 12.255 4.085 -16.34
160 160 1 0. 12.255 6.1275 -14.2975
161 161 1 0. 14.2975 4.085 -14.2975
162 162 1 0. -10.2125 8.17 -14.2975
163 163 1 0. -8.17 8.17 -16.34
164 164 1 0. -8.17 10.2125 -14.2975
165 165 1 0. -6.1275 8.17 -14.2975
166 166 1 0. -6.1275 10.2125 -16.34
167 167 1 0. -4.085 8.17 -16.34
168 168 1 0. -4.085 10.2125 -14.2975
169 169 1 0. -2.0425 10.2125 -16.34
170 170 1 0. 0 8.17 -16.34
171 171 1 0. 2.0425 10.2125 -16.34
172 172 1 0. 4.085 8.17 -16.34
173 173 1 0. 4.085 10.2125 -14.2975
174 174 1 0. 6.1275 8.17 -14.2975
175 175 1 0. 6.1275 10.2125 -16.34
176 176 1 0. 8.17 8.17 -16.34
177 177 1 0. 8.17 10.2125 -14.2975
178 178 1 0. 10.2125 8.17 -14.2975
179 179 1 0. -6.1275 12.255 -14.2975
180 180 1 0. -4.085 12.255 -16.34
181 181 1 0. -4.085 14.2975 -14.2975
182 182 1 0. -2.0425 12.255 -14.2975
183 183 1 0. -2.0425 14.2975 -16.34
184 184 1 0. 0 12.255 -16.34
185 185 1 0. 0 14.2975 -14.2975
186 186 1 0. 2.0425 12.255 -14.2975
187 187 1 0. 2.0425 14.2975 -16.34
188 188 1 0. 4.085 12.255 -16.34
189 189 1 0. 4.085 14.2975 -14.2975
190 190 1 0. 6.1275 12.255 -14.2975
191 191 1 0. -8.17 -14.2975 -10.2125
192 192 1 0. -6.1275 -16.34 -10.2125
193 193 1 0. -6.1275 -14.2975 -12.255
194 194 1 0. -4.085 -16.34 -12.255
195 195 1 0. -4.085 -14.2975 -10.2125
196 196 1 0. -2.0425 -16.34 -10.2125
197 197 1 0. -2.0425 -14.2975 -12.255
198 198 1 0. 0 -16.34 -12.255
199 199 1 0. 0 -14.2975 -10.2125
200 200 1 0. 2.0425 -16.34 -10.2125
201 201 1 0. 2.0425 -14.2975 -12.255
202 202 1 0. 4.085 -16.34 -12.255
203 203 1 0. 4.085 -14.2975 -10.2125
204 204 1 0. 6.1275 -16.34 -10.2125
205 205 1 0. 6.1275 -14.2975 -12.255
206 206 1 0. 8.17 -14.2975 -10.2125
207 207 1 0. -12.255 -10.2125 -10.2125
208 208 1 0. -10.2125 -12.255 -10.2125
209 209 1 0. -10.2125 -10.2125 -12.255
210 210 1 0. -8.17 -12.255 -12.255
211 211 1 0. -8.17 -10.2125 -10.2125
212 212 1 0. -6.1275 -12.255 -10.2125
213 213 1 0. -6.1275 -10.2125 -12.255
214 214 1 0. -4.085 -12.255 -12.255
215 215 1 0. 0 -12.255 -12.255
216 216 1 0. 4.085 -12.255 -12.255
217 217 1 0. 6.1275 -12.255 -10.2125
218 218 1 0. 6.1275 -10.2125 -12.255
219 219 1 0. 8.17 -12.255 -12.255
220 220 1 0. 8.17 -10.2125 -10.2125
221 221 1 0. 10.2125 -12.255 -10.2125
222 222 1 0. 10.2125 -10.2125 -12.255
223 223 1 0. 12.255 -10.2125 -10.2125
224 224 1 0. -16.34 -6.1275 -10.2125
225 225 1 0. -14.2975 -8.17 -10.2125
226 226 1 0. -14.2975 -6.1275 -12.255
227 227 1 0. -12.255 -8.17 -12.255
228 228 1 0. -12.255 -6.1275 -10.2125
229 229 1 0. -10.2125 -8.17 -10.2125
230 230 1 0. -10.2125 -6.1275 -12.255
231 231 1 0. -8.17 -8.17 -12.255
232 232 1 0. 8.17 -8.17 -12.255
233 233 1 0. 10.2125 -8.17 -10.2125
234 234 1 0. 10.2125 -6.1275 -12.255
235 235 1 0. 12.255 -8.17 -12.255
236 236 1 0. 12.255 -6.1275 -10.2125
237 237 1 0. 14.2975 -8.17 -10.2125
238 238 1 0. 14.2975 -6.1275 -12.255
239 239 1 0. 16.34 -6.1275 -10.2125
240 240 1 0. -18.3825 -4.085 -10.2125
241 241 1 0. -18.3825 -2.0425 -12.255
242 242 1 0. -16.34 -4.085 -12.255
243 243 1 0. -16.34 -2.0425 -10.2125
244 244 1 0. -14.2975 -4.085 -10.2125
245 245 1 0. -14.2975 -2.0425 -12.255
246 246 1 0. -12.255 -4.085 -12.255
247 247 1 0. 12.255 -4.085 -12.255
248 248 1 0. 14.2975 -4.085 -10.2125
249 249 1 0. 14.2975 -2.0425 -12.255
250 250 1 0. 16.34 -4.085 -12.255
251 251 1 0. 16.34 -2.0425 -10.2125
252 252 1 0. 18.3825 -4.085 -10.2125
253 253 1 0. 18.3825 -2.0425 -12.255
254 254 1 0. -20.425 0 -12.255
255 255 1 0. -18.3825 0 -10.2125
256 256 1 0. -18.3825 2.0425 -12.255
257 257 1 0. -16.34 0 -12.255
258 258 1 0. -16.34 2.0425 -10.2125
259 259 1 0. -14.2975 2.0425 -12.255
260 260 1 0. -12.255 0 -12.255
261 261 1 0. 12.255 0 -12.255
262 262 1 0. 14.2975 2.0425 -12.255
263 263 1 0. 16.34 0 -12.255
264 264 1 0. 16.34 2.0425 -10.2125
265 265 1 0. 18.3825 0 -10.2125
266 266 1 0. 18.3825 2.0425 -12.255
267 267 1 0. 20.425 0 -12.255
268 268 1 0. -18.3825 4.085 -10.2125
269 269 1 0. -16.34 4.085 -12.255
270 270 1 0. -16.34 6.1275 -10.2125
271 271 1 0. -14.2975 4.085 -10.2125
272 272 1 0. -14.2975 6.1275 -12.255
273 273 1 0. -12.255 4.085 -12.255
274 274 1 0. -12.255 6.1275 -10.2125
275 275 1 0. -10.2125 6.1275 -12.255
276 276 1 0. 10.2125 6.1275 -12.255
277 277 1 0. 12.255 4.085 -12.255
278 278 1 0. 12.255 6.1275 -10.2125
279 279 1 0. 14.2975 4.085 -10.2125
280 280 1 0. 14.2975 6.1275 -12.255
281 281 1 0. 16.34 4.085 -12.255
282 282 1 0. 16.34 6.1275 -10.2125
283 283 1 0. 18.3825 4.085 -10.2125
284 284 1 0. -14.2975 8.17 -10.2125
285 285 1 0. -12.255 8.17 -12.255
286 286 1 0. -12.255 10.2125 -10.2125
287 287 1 0. -10.2125 8.17 -10.2125
288 288 1 0. -10.2125 10.2125 -12.255
289 289 1 0. -8.17 8.17 -12.255
290 290 1 0. -8.17 10.2125 -10.2125
291 291 1 0. -6.1275 10.2125 -12.255
292 292 1 0. 6.1275 10.2125 -12.255
293 293 1 0. 8.17 8.17 -12.255
294 294 1 0. 8.17 10.2125 -10.2125
295 295 1 0. 10.2125 8.17 -10.2125
296 296 1 0. 10.2125 10.2125 -12.255
297 297 1 0. 12.255 8.17 -12.255
298 298 1 0. 12.255 10.2125 -10.2125
299 299 1 0. 14.2975 8.17 -10.2125
300 300 1 0. -10.2125 12.255 -10.2125
301 301 1 0. -8.17 12.255 -12.255
302 302 1 0. -8.17 14.2975 -10.2125
303 303 1 0. -6.1275 12.255 -10.2125
304 304 1 0. -6.1275 14.2975 -12.255
305 305 1 0. -4.085 12.255 -12.255
306 306 1 0. -4.085 14.2975 -10.2125
307 307 1 0. -2.0425 14.2975 -12.255
308 308 1 0. 0 12.255 -12.255
309 309 1 0. 0 14.2975 -10.2125
310 310 1 0. 2.0425 14.2975 -12.255
311 311 1 0. 4.085 12.255 -12.255
312 312 1 0. 4.085 14.2975 -10.2125
313 313 1 0. 6.1275 12.255 -10.2125
314 314 1 0. 6.1275 14.2975 -12.255
315 315 1 0. 8.17 12.255 -12.255
316 316 1 0. 8.17 14.2975 -10.2125
317 317 1 0. 10.2125 12.255 -10.2125
318 318 1 0. -6.1275 16.34 -10.2125
319 319 1 0. -4.085 16.34 -12.255
320 320 1 0. -2.0425 16.34 -10.2125
321 321 1 0. 0 16.34 -12.255
322 322 1 0. 2.0425 16.34 -10.2125
323 323 1 0. 4.085 16.34 -12.255
324 324 1 0. 6.1275 16.34 -10.2125
325 325 1 0. -8.17 -18.3825 -6.1275
326 326 1 0. -4.085 -18.3825 -6.1275
327 327 1 0. 0 -18.3825 -6.1275
328 328 1 0. 4.085 -18.3825 -6.1275
329 329 1 0. 8.17 -18.3825 -6.1275
330 330 1 0. -12.255 -14.2975 -6.1275
331 331 1 0. -10.2125 -16.34 -6.1275
332 332 1 0. -10.2125 -14.2975 -8.17
333 333 1 0. -8.17 -16.34 -8.17
334 334 1 0. -8.17 -14.2975 -6.1275
335 335 1 0. -6.1275 -16.34 -6.1275
336 336 1 0. -6.1275 -14.2975 -8.17
337 337 1 0. -4.085 -16.34 -8.17
338 338 1 0. -4.085 -14.2975 -6.1275
339 339 1 0. -2.0425 -16.34 -6.1275
340 340 1 0. -2.0425 -14.2975 -8.17
341 341 1 0. 0 -16.34 -8.17
342 342 1 0. 0 -14.2975 -6.1275
343 343 1 0. 2.0425 -16.34 -6.1275
344 344 1 0. 2.0425 -14.2975 -8.17
345 345 1 0. 4.085 -16.34 -8.17
346 346 1 0. 4.085 -14.2975 -6.1275
347 347 1 0. 6.1275 -16.34 -6.1275
348 348 1 0. 6.1275 -14.2975 -8.17
349 349 1 0. 8.17 -16.34 -8.17
350 350 1 0. 8.17 -14.2975 -6.1275
351 351 1 0. 10.2125 -16.34 -6.1275
352 352 1 0. 10.2125 -14.2975 -8.17
353 353 1 0. 12.255 -14.2975 -6.1275
354 354 1 0. -16.34 -10.2125 -6.1275
355 355 1 0. -14.2975 -12.255 -6.1275
356 356 1 0. -14.2975 -10.2125 -8.17
357 357 1 0. -12.255 -12.255 -8.17
358 358 1 0. -12.255 -10.2125 -6.1275
359 359 1 0. -10.2125 -12.255 -6.1275
360 360 1 0. -10.2125 -10.2125 -8.17
361 361 1 0. -8.17 -12.255 -8.17
362 362 1 0. 8.17 -12.255 -8.17
363 363 1 0. 10.2125 -12.255 -6.1275
364 364 1 0. 10.2125 -10.2125 -8.17
365 365 1 0. 12.255 -12.255 -8.17
366 366 1 0. 12.255 -10.2125 -6.1275
367 367 1 0. 14.2975 -12.255 -6.1275
368 368 1 0. 14.2975 -10.2125 -8.17
369 369 1 0. 16.34 -10.2125 -6.1275
370 370 1 0. -18.3825 -6.1275 -8.17
371 371 1 0. -16.34 -8.17 -8.17
372 372 1 0. -16.34 -6.1275 -6.1275
373 373 1 0. -14.2975 -8.17 -6.1275
374 374 1 0. -14.2975 -6.1275 -8.17
375 375 1 0. -12.255 -8.17 -8.17
376 376 1 0. 12.255 -8.17 -8.17
377 377 1 0. 14.2975 -8.17 -6.1275
378 378 1 0. 14.2975 -6.1275 -8.17
379 379 1 0. 16.34 -8.17 -8.17
380 380 1 0. 16.34 -6.1275 -6.1275
381 381 1 0. 18.3825 -6.1275 -8.17
382 382 1 0. -18.3825 -4.085 -6.1275
383 383 1 0. -18.3825 -2.0425 -8.17
384 384 1 0. -16.34 -4.085 -8.17
385 385 1 0. -16.34 -2.0425 -6.1275
386 386 1 0. 16.34 -4.085 -8.17
387 387 1 0. 16.34 -2.0425 -6.1275
388 388 1 0. 18.3825 -4.085 -6.1275
389 389 1 0. 18.3825 -2.0425 -8.17
390 390 1 0. -20.425 0 -8.17
391 391 1 0. -18.3825 0 -6.1275
392 392 1 0. -18.3825 2.0425 -8.17
393 393 1 0. -16.34 0 -8.17
394 394 1 0. -16.34 2.0425 -6.1275
395 395 1 0. 16.34 0 -8.17
396 396 1 0. 16.34 2.0425 -6.1275
397 397 1 0. 18.3825 0 -6.1275
398 398 1 0. 18.3825 2.0425 -8.17
399 399 1 0. 20.425 0 -8.17
400 400 1 0. -18.3825 4.085 -6.1275
401 401 1 0. -18.3825 6.1275 -8.17
402 402 1 0. -16.34 4.085 -8.17
403 403 1 0. -16.34 6.1275 -6.1275
404 404 1 0. -14.2975 6.1275 -8.17
405 405 1 0. 14.2975 6.1275 -8.17
406 406 1 0. 16.34 4.085 -8.17
407 407 1 0. 16.34 6.1275 -6.1275
408 408 1 0. 18.3825 4.085 -6.1275
409 409 1 0. 18.3825 6.1275 -8.17
410 410 1 0. -16.34 8.17 -8.17
411 411 1 0. -16.34 10.2125 -6.1275
412 412 1 0. -14.2975 8.17 -6.1275
413 413 1 0. -14.2975 10.2125 -8.17
414 414 1 0. -12.255 8.17 -8.17
415 415 1 0. -12.255 10.2125 -6.1275
416 416 1 0. -10.2125 10.2125 -8.17
417 417 1 0. 10.2125 10.2125 -8.17
418 418 1 0. 12.255 8.17 -8.17
419 419 1 0. 12.255 10.2125 -6.1275
420 420 1 0. 14.2975 8.17 -6.1275
421 421 1 0. 14.2975 10.2125 -8.17
422 422 1 0. 16.34 8.17 -8.17
423 423 1 0. 16.34 10.2125 -6.1275
424 424 1 0. -14.2975 12.255 -6.1275
425 425 1 0. -12.255 12.255 -8.17
426 426 1 0. -12.255 14.2975 -6.1275
427 427 1 0. -10.2125 12.255 -6.1275
428 428 1 0. -10.2125 14.2975 -8.17
429 429 1 0. -8.17 12.255 -8.17
430 430 1 0. -8.17 14.2975 -6.1275
431 431 1 0. -6.1275 14.2975 -8.17
432 432 1 0. -4.085 14.2975 -6.1275
433 433 1 0. -2.0425 14.2975 -8.17
434 434 1 0. 0 14.2975 -6.1275
435 435 1 0. 2.0425 14.2975 -8.17
436 436 1 0. 4.085 14.2975 -6.1275
437 437 1 0. 6.1275 14.2975 -8.17
438 438 1 0. 8.17 12.255 -8.17
439 439 1 0. 8.17 14.2975 -6.1275
440 440 1 0. 10.2125 12.255 -6.1275
441 441 1 0. 10.2125 14.2975 -8.17
442 442 1 0. 12.255 12.255 -8.17
443 443 1 0. 12.255 14.2975 -6.1275
444 444 1 0. 14.2975 12.255 -6.1275
445 445 1 0. -10.2125 16.34 -6.1275
446 446 1 0. -8.17 16.34 -8.17
447 447 1 0. -8.17 18.3825 -6.1275
448 448 1 0. -6.1275 16.34 -6.1275
449 449 1 0. -4.085 16.34 -8.17
450 450 1 0. -4.085 18.3825 -6.1275
451 451 1 0. -2.0425 16.34 -6.1275
452 452 1 0. 0 16.34 -8.17
453 453 1 0. 0 18.3825 -6.1275
454 454 1 0. 2.0425 16.34 -6.1275
455 455 1 0. 4.085 16.34 -8.17
456 456 1 0. 4.085 18.3825 -6.1275
457 457 1 0. 6.1275 16.34 -6.1275
458 458 1 0. 8.17 16.34 -8.17
459 459 1 0. 8.17 18.3825 -6.1275
460 460 1 0. 10.2125 16.34 -6.1275
461 461 1 0. -12.255 -18.3825 -2.0425
462 462 1 0. -10.2125 -18.3825 -4.085
463 463 1 0. -8.17 -18.3825 -2.0425
464 464 1 0. -6.1275 -18.3825 -4.085
465 465 1 0. -4.085 -18.3825 -2.0425
466 466 1 0. -2.0425 -18.3825 -4.085
467 467 1 0. 0 -18.3825 -2.0425
468 468 1 0. 2.0425 -18.3825 -4.085
469 469 1 0. 4.085 -18.3825 -2.0425
470 470 1 0. 6.1275 -18.3825 -4.085
471 471 1 0. 8.17 -18.3825 -2.0425
472 472 1 0. 10.2125 -18.3825 -4.085
473 473 1 0. 12.255 -18.3825 -2.0425
474 474 1 0. -14.2975 -16.34 -2.0425
475 475 1 0. -14.2975 -14.2975 -4.085
476 476 1 0. -12.255 -16.34 -4.085
477 477 1 0. -12.255 -14.2975 -2.0425
478 478 1 0. -10.2125 -16.34 -2.0425
479 479 1 0. -10.2125 -14.2975 -4.085
480 480 1 0. -8.17 -16.34 -4.085
481 481 1 0. -6.1275 -16.34 -2.0425
482 482 1 0. -4.085 -16.34 -4.085
483 483 1 0. -2.0425 -16.34 -2.0425
484 484 1 0. 0 -16.34 -4.085
485 485 1 0. 2.0425 -16.34 -2.0425
486 486 1 0. 4.085 -16.34 -4.085
487 487 1 0. 6.1275 -16.34 -2.0425
488 488 1 0. 8.17 -16.34 -4.085
489 489 1 0. 10.2125 -16.34 -2.0425
490 490 1 0. 10.2125 -14.2975 -4.085
491 491 1 0. 12.255 -16.34 -4.085
492 492 1 0. 12.255 -14.2975 -2.0425
493 493 1 0. 14.2975 -16.34 -2.0425
494 494 1 0. 14.2975 -14.2975 -4.085
495 495 1 0. -16.34 -12.255 -4.085
496 496 1 0. -16.34 -10.2125 -2.0425
497 497 1 0. -14.2975 -12.255 -2.0425
498 498 1 0. -14.2975 -10.2125 -4.085
499 499 1 0. -12.255 -12.255 -4.085
500 500 1 0. 12.255 -12.255 -4.085
501 501 1 0. 14.2975 -12.255 -2.0425
502 502 1 0. 14.2975 -10.2125 -4.085
503 503 1 0. 16.34 -12.255 -4.085
504 504 1 0. 16.34 -10.2125 -2.0425
505 505 1 0. -18.3825 -6.1275 -4.085
506 506 1 0. -16.34 -8.17 -4.085
507 507 1 0. -16.34 -6.1275 -2.0425
508 508 1 0. -14.2975 -8.17 -2.0425
509 509 1 0. -14.2975 -6.1275 -4.085
510 510 1 0. 14.2975 -8.17 -2.0425
511 511 1 0. 14.2975 -6.1275 -4.085
512 512 1 0. 16.34 -8.17 -4.085
513 513 1 0. 16.34 -6.1275 -2.0425
514 514 1 0. 18.3825 -6.1275 -4.085
515 515 1 0. -18.3825 -4.085 -2.0425
516 516 1 0. -18.3825 -2.0425 -4.085
517 517 1 0. -16.34 -4.085 -4.085
518 518 1 0. -16.34 -2.0425 -2.0425
519 519 1 0. 16.34 -4.085 -4.085
520 520 1 0. 16.34 -2.0425 -2.0425
521 521 1 0. 18.3825 -4.085 -2.0425
522 522 1 0. 18.3825 -2.0425 -4.085
523 523 1 0. -20.425 0 -4.085
524 524 1 0. -18.3825 0 -2.0425
525 525 1 0. -18.3825 2.0425 -4.085
526 526 1 0. -16.34 0 -4.085
527 527 1 0. -16.34 2.0425 -2.0425
528 528 1 0. 16.34 0 -4.085
529 529 1 0. 16.34 2.0425 -2.0425
530 530 1 0. 18.3825 0 -2.0425
531 531 1 0. 18.3825 2.0425 -4.085
532 532 1 0. 20.425 0 -4.085
533 533 1 0. -18.3825 4.085 -2.0425
534 534 1 0. -18.3825 6.1275 -4.085
535 535 1 0. -16.34 4.085 -4.085
536 536 1 0. -16.34 6.1275 -2.0425
537 537 1 0. -14.2975 6.1275 -4.085
538 538 1 0. 14.2975 6.1275 -4.085
539 539 1 0. 16.34 4.085 -4.085
540 540 1 0. 16.34 6.1275 -2.0425
541 541 1 0. 18.3825 4.085 -2.0425
542 542 1 0. 18.3825 6.1275 -4.085
543 543 1 0. -16.34 8.17 -4.085
544 544 1 0. -16.34 10.2125 -2.0425
545 545 1 0. -14.2975 8.17 -2.0425
546 546 1 0. -14.2975 10.2125 -4.085
547 547 1 0. 14.2975 8.17 -2.0425
548 548 1 0. 14.2975 10.2125 -4.085
549 549 1 0. 16.34 8.17 -4.085
550 550 1 0. 16.34 10.2125 -2.0425
551 551 1 0. -16.34 12.255 -4.085
552 552 1 0. -14.2975 12.255 -2.0425
553 553 1 0. -14.2975 14.2975 -4.085
554 554 1 0. -12.255 12.255 -4.085
555 555 1 0. -12.255 14.2975 -2.0425
556 556 1 0. -10.2125 14.2975 -4.085
557 557 1 0. 10.2125 14.2975 -4.085
558 558 1 0. 12.255 12.255 -4.085
559 559 1 0. 12.255 14.2975 -2.0425
560 560 1 0. 14.2975 12.255 -2.0425
561 561 1 0. 14.2975 14.2975 -4.085
562 562 1 0. 16.34 12.255 -4.085
563 563 1 0. -14.2975 16.34 -2.0425
564 564 1 0. -12.255 16.34 -4.085
565 565 1 0. -12.255 18.3825 -2.0425
566 566 1 0. -10.2125 16.34 -2.0425
567 567 1 0. -10.2125 18.3825 -4.085
568 568 1 0. -8.17 16.34 -4.085
569 569 1 0. -8.17 18.3825 -2.0425
570 570 1 0. -6.1275 16.34 -2.0425
571 571 1 0. -6.1275 18.3825 -4.085
572 572 1 0. -4.085 16.34 -4.085
573 573 1 0. -4.085 18.3825 -2.0425
574 574 1 0. -2.0425 16.34 -2.0425
575 575 1 0. -2.0425 18.3825 -4.085
576 576 1 0. 0 16.34 -4.085
577 577 1 0. 0 18.3825 -2.0425
578 578 1 0. 2.0425 16.34 -2.0425
579 579 1 0. 2.0425 18.3825 -4.085
580 580 1 0. 4.085 16.34 -4.085
581 581 1 0. 4.085 18.3825 -2.0425
582 582 1 0. 6.1275 16.34 -2.0425
583 583 1 0. 6.1275 18.3825 -4.085
584 584 1 0. 8.17 16.34 -4.085
585 585 1 0. 8.17 18.3825 -2.0425
586 586 1 0. 10.2125 16.34 -2.0425
587 587 1 0. 10.2125 18.3825 -4.085
588 588 1 0. 12.255 16.34 -4.085
589 589 1 0. 12.255 18.3825 -2.0425
590 590 1 0. 14.2975 16.34 -2.0425
591 591 1 0. -12.255 -20.425 0
592 592 1 0. -12.255 -18.3825 2.0425
593 593 1 0. -10.2125 -18.3825 0
594 594 1 0. -8.17 -20.425 0
595 595 1 0. -8.17 -18.3825 2.0425
596 596 1 0. -6.1275 -18.3825 0
597 597 1 0. -4.085 -20.425 0
598 598 1 0. -4.085 -18.3825 2.0425
599 599 1 0. -2.0425 -18.3825 0
600 600 1 0. 0 -20.425 0
601 601 1 0. 0 -18.3825 2.0425
602 602 1 0. 2.0425 -18.3825 0
603 603 1 0. 4.085 -20.425 0
604 604 1 0. 4.085 -18.3825 2.0425
605 605 1 0. 6.1275 -18.3825 0
606 606 1 0. 8.17 -20.425 0
607 607 1 0. 8.17 -18.3825 2.0425
608 608 1 0. 10.2125 -18.3825 0
609 609 1 0. 12.255 -20.425 0
610 610 1 0. 12.255 -18.3825 2.0425
611 611 1 0. -14.2975 -16.34 2.0425
612 612 1 0. -14.2975 -14.2975 0
613 613 1 0. -12.255 -16.34 0
614 614 1 0. -12.255 -14.2975 2.0425
615 615 1 0. -10.2125 -16.34 2.0425
616 616 1 0. -8.17 -16.34 0
617 617 1 0. -6.1275 -16.34 2.0425
618 618 1 0. -4.085 -16.34 0
619 619 1 0. -2.0425 -16.34 2.0425
620 620 1 0. 0 -16.34 0
621 621 1 0. 2.0425 -16.34 2.0425
622 622 1 0. 4.085 -16.34 0
623 623 1 0. 6.1275 -16.34 2.0425
624 624 1 0. 8.17 -16.34 0
625 625 1 0. 10.2125 -16.34 2.0425
626 626 1 0. 12.255 -16.34 0
627 627 1 0. 12.255 -14.2975 2.0425
628 628 1 0. 14.2975 -16.34 2.0425
629 629 1 0. 14.2975 -14.2975 0
630 630 1 0. -16.34 -12.255 0
631 631 1 0. -16.34 -10.2125 2.0425
632 632 1 0. -14.2975 -12.255 2.0425
633 633 1 0. -14.2975 -10.2125 0
634 634 1 0. -12.255 -12.255 0
635 635 1 0. 12.255 -12.255 0
636 636 1 0. 14.2975 -12.255 2.0425
637 637 1 0. 14.2975 -10.2125 0
638 638 1 0. 16.34 -12.255 0
639 639 1 0. 16.34 -10.2125 2.0425
640 640 1 0. -18.3825 -6.1275 0
641 641 1 0. -16.34 -8.17 0
642 642 1 0. -16.34 -6.1275 2.0425
643 643 1 0. -14.2975 -8.17 2.0425
644 644 1 0. -14.2975 -6.1275 0
645 645 1 0. 14.2975 -8.17 2.0425
646 646 1 0. 14.2975 -6.1275 0
647 647 1 0. 16.34 -8.17 0
648 648 1 0. 16.34 -6.1275 2.0425
649 649 1 0. 18.3825 -6.1275 0
650 650 1 0. -18.3825 -4.085 2.0425
651 651 1 0. -18.3825 -2.0425 0
652 652 1 0. -16.34 -4.085 0
653 653 1 0. -16.34 -2.0425 2.0425
654 654 1 0. 16.34 -4.085 0
655 655 1 0. 16.34 -2.0425 2.0425
656 656 1 0. 18.3825 -4.085 2.0425
657 657 1 0. 18.3825 -2.0425 0
658 658 1 0. -20.425 0 0
659 659 1 0. -18.3825 0 2.0425
660 660 1 0. -18.3825 2.0425 0
661 661 1 0. -16.34 0 0
662 662 1 0. -16.34 2.0425 2.0425
663 663 1 0. 16.34 0 0
664 664 1 0. 16.34 2.0425 2.0425
665 665 1 0. 18.3825 0 2.0425
666 666 1 0. 18.3825 2.0425 0
667 667 1 0. 20.425 0 0
668 668 1 0. -18.3825 4.085 2.0425
669 669 1 0. -18.3825 6.1275 0
670 670 1 0. -16.34 4.085 0
671 671 1 0. -16.34 6.1275 2.0425
672 672 1 0. -14.2975 6.1275 0
673 673 1 0. 14.2975 6.1275 0
674 674 1 0. 16.34 4.085 0
675 675 1 0. 16.34 6.1275 2.0425
676 676 1 0. 18.3825 4.085 2.0425
677 677 1 0. 18.3825 6.1275 0
678 678 1 0. -16.34 8.17 0
679 679 1 0. -16.34 10.2125 2.0425
680 680 1 0. -14.2975 8.17 2.0425
681 681 1 0. -14.2975 10.2125 0
682 682 1 0. 14.2975 8.17 2.0425
683 683 1 0. 14.2975 10.2125 0
684 684 1 0. 16.34 8.17 0
685 685 1 0. 16.34 10.2125 2.0425
686 686 1 0. -16.34 12.255 0
687 687 1 0. -14.2975 12.255 2.0425
688 688 1 0. -14.2975 14.2975 0
689 689 1 0. -12.255 12.255 0
690 690 1 0. -12.255 14.2975 2.0425
691 691 1 0. 12.255 12.255 0
692 692 1 0. 12.255 14.2975 2.0425
693 693 1 0. 14.2975 12.255 2.0425
694 694 1 0. 14.2975 14.2975 0
695 695 1 0. 16.34 12.255 0
696 696 1 0. -14.2975 16.34 2.0425
697 697 1 0. -12.255 16.34 0
698 698 1 0. -12.255 18.3825 2.0425
699 699 1 0. -10.2125 16.34 2.0425
700 700 1 0. -10.2125 18.3825 0
701 701 1 0. -8.17 16.34 0
702 702 1 0. -8.17 18.3825 2.0425
703 703 1 0. -6.1275 16.34 2.0425
704 704 1 0. -6.1275 18.3825 0
705 705 1 0. -4.085 16.34 0
706 706 1 0. -4.085 18.3825 2.0425
707 707 1 0. -2.0425 16.34 2.0425
708 708 1 0. -2.0425 18.3825 0
709 709 1 0. 0 16.34 0
710 710 1 0. 0 18.3825 2.0425
711 711 1 0. 2.0425 16.34 2.0425
712 712 1 0. 2.0425 18.3825 0
713 713 1 0. 4.085 16.34 0
714 714 1 0. 4.085 18.3825 2.0425
715 715 1 0. 6.1275 16.34 2.0425
716 716 1 0. 6.1275 18.3825 0
717 717 1 0. 8.17 16.34 0
718 718 1 0. 8.17 18.3825 2.0425
719 719 1 0. 10.2125 16.34 2.0425
720 720 1 0. 10.2125 18.3825 0
721 721 1 0. 12.255 16.34 0
722 722 1 0. 12.255 18.3825 2.0425
723 723 1 0. 14.2975 16.34 2.0425
724 724 1 0. -12.255 20.425 0
725 725 1 0. -8.17 20.425 0
726 726 1 0. -4.085 20.425 0
727 727 1 0. 0 20.425 0
728 728 1 0. 4.085 20.425 0
729 729 1 0. 8.17 20.425 0
730 730 1 0. 12.255 20.425 0
731 731 1 0. -10.2125 -18.3825 4.085
732 732 1 0. -8.17 -18.3825 6.1275
733 733 1 0. -6.1275 -18.3825 4.085
734 734 1 0. -4.085 -18.3825 6.1275
735 735 1 0. -2.0425 -18.3825 4.085
736 736 1 0. 0 -18.3825 6.1275
737 737 1 0. 2.0425 -18.3825 4.085
738 738 1 0. 4.085 -18.3825 6.1275
739 739 1 0. 6.1275 -18.3825 4.085
740 740 1 0. 8.17 -18.3825 6.1275
741 741 1 0. 10.2125 -18.3825 4.085
742 742 1 0. -14.2975 -14.2975 4.085
743 743 1 0. -12.255 -16.34 4.085
744 744 1 0. -12.255 -14.2975 6.1275
745 745 1 0. -10.2125 -16.34 6.1275
746 746 1 0. -10.2125 -14.2975 4.085
747 747 1 0. -8.17 -16.34 4.085
748 748 1 0. -8.17 -14.2975 6.1275
749 749 1 0. -6.1275 -16.34 6.1275
750 750 1 0. -4.085 -16.34 4.085
751 751 1 0. -4.085 -14.2975 6.1275
752 752 1 0. -2.0425 -16.34 6.1275
753 753 1 0. 0 -16.34 4.085
754 754 1 0. 0 -14.2975 6.1275
755 755 1 0. 2.0425 -16.34 6.1275
756 756 1 0. 4.085 -16.34 4.085
757 757 1 0. 4.085 -14.2975 6.1275
758 758 1 0. 6.1275 -16.34 6.1275
759 759 1 0. 8.17 -16.34 4.085
760 760 1 0. 8.17 -14.2975 6.1275
761 761 1 0. 10.2125 -16.34 6.1275
762 762 1 0. 10.2125 -14.2975 4.085
763 763 1 0. 12.255 -16.34 4.085
764 764 1 0. 12.255 -14.2975 6.1275
765 765 1 0. 14.2975 -14.2975 4.085
766 766 1 0. -16.34 -12.255 4.085
767 767 1 0. -16.34 -10.2125 6.1275
768 768 1 0. -14.2975 -12.255 6.1275
769 769 1 0. -14.2975 -10.2125 4.085
770 770 1 0. -12.255 -12.255 4.085
771 771 1 0. -12.255 -10.2125 6.1275
772 772 1 0. -10.2125 -12.255 6.1275
773 773 1 0. 10.2125 -12.255 6.1275
774 774 1 0. 12.255 -12.255 4.085
775 775 1 0. 12.255 -10.2125 6.1275
776 776 1 0. 14.2975 -12.255 6.1275
777 777 1 0. 14.2975 -10.2125 4.085
778 778 1 0. 16.34 -12.255 4.085
779 779 1 0. 16.34 -10.2125 6.1275
780 780 1 0. -18.3825 -6.1275 4.085
781 781 1 0. -16.34 -8.17 4.085
782 782 1 0. -16.34 -6.1275 6.1275
783 783 1 0. -14.2975 -8.17 6.1275
784 784 1 0. -14.2975 -6.1275 4.085
785 785 1 0. 14.2975 -8.17 6.1275
786 786 1 0. 14.2975 -6.1275 4.085
787 787 1 0. 16.34 -8.17 4.085
788 788 1 0. 16.34 -6.1275 6.1275
789 789 1 0. 18.3825 -6.1275 4.085
790 790 1 0. -18.3825 -4.085 6.1275
791 791 1 0. -18.3825 -2.0425 4.085
792 792 1 0. -16.34 -4.085 4.085
793 793 1 0. -16.34 -2.0425 6.1275
794 794 1 0. 16.34 -4.085 4.085
795 795 1 0. 16.34 -2.0425 6.1275
796 796 1 0. 18.3825 -4.085 6.1275
797 797 1 0. 18.3825 -2.0425 4.085
798 798 1 0. -20.425 0 4.085
799 799 1 0. -18.3825 0 6.1275
800 800 1 0. -18.3825 2.0425 4.085
801 801 1 0. -16.34 0 4.085
802 802 1 0. -16.34 2.0425 6.1275
803 803 1 0. 16.34 0 4.085
804 804 1 0. 16.34 2.0425 6.1275
805 805 1 0. 18.3825 0 6.1275
806 806 1 0. 18.3825 2.0425 4.085
807 807 1 0. 20.425 0 4.085
808 808 1 0. -18.3825 4.085 6.1275
809 809 1 0. -18.3825 6.1275 4.085
810 810 1 0. -16.34 4.085 4.085
811 811 1 0. -16.34 6.1275 6.1275
812 812 1 0. -14.2975 6.1275 4.085
813 813 1 0. 14.2975 6.1275 4.085
814 814 1 0. 16.34 4.085 4.085
815 815 1 0. 16.34 6.1275 6.1275
816 816 1 0. 18.3825 4.085 6.1275
817 817 1 0. 18.3825 6.1275 4.085
818 818 1 0. -16.34 8.17 4.085
819 819 1 0. -16.34 10.2125 6.1275
820 820 1 0. -14.2975 8.17 6.1275
821 821 1 0. -14.2975 10.2125 4.085
822 822 1 0. -12.255 10.2125 6.1275
823 823 1 0. 12.255 10.2125 6.1275
824 824 1 0. 14.2975 8.17 6.1275
825 825 1 0. 14.2975 10.2125 4.085
826 826 1 0. 16.34 8.17 4.085
827 827 1 0. 16.34 10.2125 6.1275
828 828 1 0. -16.34 12.255 4.085
829 829 1 0. -14.2975 12.255 6.1275
830 830 1 0. -14.2975 14.2975 4.085
831 831 1 0. -12.255 12.255 4.085
832 832 1 0. -12.255 14.2975 6.1275
833 833 1 0. -10.2125 12.255 6.1275
834 834 1 0. -10.2125 14.2975 4.085
835 835 1 0. -8.17 14.2975 6.1275
836 836 1 0. -4.085 14.2975 6.1275
837 837 1 0. 0 14.2975 6.1275
838 838 1 0. 4.085 14.2975 6.1275
839 839 1 0. 8.17 14.2975 6.1275
840 840 1 0. 10.2125 12.255 6.1275
841 841 1 0. 10.2125 14.2975 4.085
842 842 1 0. 12.255 12.255 4.085
843 843 1 0. 12.255 14.2975 6.1275
844 844 1 0. 14.2975 12.255 6.1275
845 845 1 0. 14.2975 14.2975 4.085
846 846 1 0. 16.34 12.255 4.085
847 847 1 0. -12.255 16.34 4.085
848 848 1 0. -10.2125 16.34 6.1275
849 849 1 0. -10.2125 18.3825 4.085
850 850 1 0. -8.17 16.34 4.085
851 851 1 0. -8.17 18.3825 6.1275
852 852 1 0. -6.1275 16.34 6.1275
853 853 1 0. -6.1275 18.3825 4.085
854 854 1 0. -4.085 16.34 4.085
855 855 1 0. -4.085 18.3825 6.1275
856 856 1 0. -2.0425 16.34 6.1275
857 857 1 0. -2.0425 18.3825 4.085
858 858 1 0. 0 16.34 4.085
859 859 1 0. 0 18.3825 6.1275
860 860 1 0. 2.0425 16.34 6.1275
861 861 1 0. 2.0425 18.3825 4.085
862 862 1 0. 4.085 16.34 4.085
863 863 1 0. 4.085 18.3825 6.1275
864 864 1 0. 6.1275 16.34 6.1275
865 865 1 0. 6.1275 18.3825 4.085
866 866 1 0. 8.17 16.34 4.085
867 867 1 0. 8.17 18.3825 6.1275
868 868 1 0. 10.2125 16.34 6.1275
869 869 1 0. 10.2125 18.3825 4.085
870 870 1 0. 12.255 16.34 4.085
871 871 1 0. -10.2125 -14.2975 8.17
872 872 1 0. -8.17 -16.34 8.17
873 873 1 0. -8.17 -14.2975 10.2125
874 874 1 0. -6.1275 -16.34 10.2125
875 875 1 0. -6.1275 -14.2975 8.17
876 876 1 0. -4.085 -16.34 8.17