LAMMPS Description

9  atoms
8  bonds
9  angles
8  dihedrals
0  impropers

6  atom types
4  bond types
4  angle types
5  dihedral types

-50.0 50.0 xlo xhi
-50.0 50.0 ylo yhi
-50.0 50.0 zlo zhi

Masses

1 107.8682
2 14.02658
3 15.03452
4 32.065
5 15.9994
6 1.00794

Atoms

1 1 4 0. -3.066667 -0.187333 0.000000
2 1 2 0. -2.048667 -0.749333 0.000000
3 1 2 0. -1.024667 -0.187333 0.000000
4 1 2 0. -0.000667 -0.749333 0.000000
5 1 2 0. -0.000667 0.374667 0.000000
6 1 3 0. 1.023333 -1.311333 0.000000
7 1 2 0. 1.023333 0.936667 0.000000
8 1 3 0. 2.047333 0.374667 0.000000
9 1 3 0. 2.047333 1.498667 0.000000

Bonds

1 1 1 2
2 2 2 3
3 2 3 4
4 2 3 5
5 2 4 6
6 2 5 7
7 2 7 8
8 2 7 9

Angles

1 1 1 2 3
2 2 2 3 4
3 2 2 3 5
4 2 3 5 7
5 2 4 3 5
6 2 3 4 6
7 2 5 7 8
8 2 5 7 9
9 2 8 7 9

Dihedrals

1 1 1 2 3 4
2 1 1 2 3 5
3 2 2 3 4 6
4 2 3 5 7 8
5 2 3 5 7 9
6 2 5 3 4 6
7 2 2 3 5 7
8 2 4 3 5 7

