LAMMPS data file via write_data, version 15 May 2015, timestep = 0

4299 atoms
6 atom types
1648 bonds
5 bond types
1442 angles
5 angle types
1236 dihedrals
5 dihedral types

-1.0081000000000000e+02 1.5081000000000000e+02 xlo xhi
-1.0050749999999999e+02 1.5050749999999999e+02 ylo yhi
-1.0004550000000000e+02 1.5004550000000000e+02 zlo zhi

Masses

1 107.868
2 12.0112
3 12.0112
4 32.064
5 15.9994
6 1.00797

Bond Coeffs # class2

1 1.53 299.67 -501.77 679.81
2 1.53 299.67 -501.77 679.81
3 1.823 225.277 -327.706 488.972
4 1.42 400.395 -835.195 1313.01
5 0.965 532.506 -1282.9 2004.77

Angle Coeffs # class2

1 112.67 39.516 -7.443 -9.5583
2 112.67 39.516 -7.443 -9.5583
3 112.564 47.0276 -10.679 -10.1687
4 105.8 52.7061 -12.109 -9.8681
5 111.27 54.5381 -8.3642 -13.0838

BondBond Coeffs

1 0 1.53 1.53
2 0 1.53 1.53
3 10.9186 1.53 1.823
4 -9.6879 1.42 0.965
5 11.4318 1.53 1.42

BondAngle Coeffs

1 8.016 8.016 1.53 1.53
2 8.016 8.016 1.53 1.53
3 -3.5621 22.3865 1.53 1.823
4 28.58 18.9277 1.42 0.965
5 2.6868 20.4033 1.53 1.42

Dihedral Coeffs # class2

1 0 0 0.0514 0 -0.143 0
2 0 0 0.0514 0 -0.143 0
3 -0.7017 0 0.0201 0 0.104 0
4 0 0 0 0 0.158 0
5 -0.6732 0 -0.4778 0 -0.167 0

AngleAngleTorsion Coeffs

1 -22.045 112.67 112.67
2 -22.045 112.67 112.67
3 -26.71 112.564 112.67
4 0 112.564 111.27
5 -12.1038 105.8 111.27

EndBondTorsion Coeffs

1 -0.0732 0 0 -0.0732 0 0 1.53 1.53
2 -0.0732 0 0 -0.0732 0 0 1.53 1.53
3 -0.7991 -0.959 0.5855 -0.1586 -0.7244 -0.2608 1.823 1.53
4 0 0 0 0 0 0 1.823 1.42
5 0 0.5343 0.9025 -0.58 0.9004 0 0.965 1.53

MiddleBondTorsion Coeffs

1 -17.787 -7.1877 0 1.53
2 -17.787 -7.1877 0 1.53
3 -4.2593 -5.6468 -3.3835 1.53
4 0 0 0 1.53
5 1.2472 0 0.7485 1.42

BondBond13 Coeffs

1 0 1.53 1.53
2 0 1.53 1.53
3 0 1.823 1.53
4 0 1.823 1.42
5 0 0.965 1.53

AngleTorsion Coeffs

1 0.3886 -0.3139 0.1389 0.3886 -0.3139 0.1389 112.67 112.67
2 0.3886 -0.3139 0.1389 0.3886 -0.3139 0.1389 112.67 112.67
3 1.1179 0.3638 0.9423 -2.0927 -0.1498 -1.7848 112.564 112.67
4 0 0 0 0 0 0 112.564 111.27
5 0.8726 -0.3577 0.3888 -3.5903 2.5225 0.4888 105.8 111.27

Atoms # full

4181 2639 2 0.0000000000000000e+00 5.5524328660906022e+01 5.0760068824746838e+01 3.1257573972690139e+01 0 0 0
4192 2640 3 0.0000000000000000e+00 5.2069447900499704e+01 5.5537847580968894e+01 3.0630949750460566e+01 0 0 0
4195 2640 2 0.0000000000000000e+00 5.3491311871924921e+01 5.5956329846537329e+01 3.0250452299414277e+01 0 0 0
4184 2639 2 0.0000000000000000e+00 5.6033376603352096e+01 5.2022718510876679e+01 3.0557935185631074e+01 0 0 0
4182 2639 2 0.0000000000000000e+00 5.5360529305344755e+01 5.3311133349435273e+01 2.8527375219895795e+01 0 0 0
4180 2639 2 0.0000000000000000e+00 5.4869858004330162e+01 5.2716644950169794e+01 2.9848402236506878e+01 0 0 0
4179 2639 3 0.0000000000000000e+00 5.6847264071809242e+01 5.2996763517926873e+01 2.8347391330162381e+01 0 0 0
4193 2640 2 0.0000000000000000e+00 5.4016744272288385e+01 5.6965353178199962e+01 3.1272743775254746e+01 0 0 0
4266 2648 2 0.0000000000000000e+00 6.5868599134077684e+01 5.7697802263884121e+01 3.0747549905608480e+01 0 0 0
4151 2636 2 0.0000000000000000e+00 5.0411969381377915e+01 6.0660713053741432e+01 2.9177672086046407e+01 0 0 0
4148 2636 3 0.0000000000000000e+00 5.0010436568203417e+01 6.0824657414660074e+01 2.7710192436512223e+01 0 0 0
4255 2647 2 0.0000000000000000e+00 5.7113235644227281e+01 5.9414492678069877e+01 3.0518138624919516e+01 0 0 0
4258 2647 2 0.0000000000000000e+00 5.7107665754704939e+01 6.0412223660327498e+01 2.9358918217305263e+01 0 0 0
4153 2636 2 0.0000000000000000e+00 5.2615540324164819e+01 6.0825458980610136e+01 3.0340876258618870e+01 0 0 0
4150 2636 2 0.0000000000000000e+00 5.1701985281730849e+01 6.1838055652367252e+01 3.1035839297876066e+01 0 0 0
4149 2636 2 0.0000000000000000e+00 5.1827510700919206e+01 6.0087066178331824e+01 2.9258041174707806e+01 0 0 0
4251 2647 3 0.0000000000000000e+00 6.2049741764818918e+01 5.8753772643997848e+01 2.8528758906035840e+01 0 0 0
4254 2647 2 0.0000000000000000e+00 6.0924239280313039e+01 5.9790270946743689e+01 2.8551524378674138e+01 0 0 0
4252 2647 2 0.0000000000000000e+00 6.0045154087256442e+01 5.9615813294229199e+01 2.7312145124100113e+01 0 0 0
4256 2647 2 0.0000000000000000e+00 5.8758496118813390e+01 6.0424680014044796e+01 2.7482416450651947e+01 0 0 0
4253 2647 2 0.0000000000000000e+00 5.8548691880058236e+01 6.0743618969933152e+01 2.8964701379983257e+01 0 0 0
4269 2648 2 0.0000000000000000e+00 6.7183707491798032e+01 5.8278230014416231e+01 3.0221715234081120e+01 0 0 0
4265 2648 2 0.0000000000000000e+00 6.7370956086381284e+01 5.9693988260715116e+01 3.0768810294902451e+01 0 0 0
4267 2648 2 0.0000000000000000e+00 6.8384581794237931e+01 6.0444471032848078e+01 2.9903578708643661e+01 0 0 0
4264 2648 3 0.0000000000000000e+00 6.8946395550618206e+01 5.9498917402235392e+01 2.8839672457677757e+01 0 0 0
2921 2501 3 0.0000000000000000e+00 5.0879594312854074e+01 5.0989303324360826e+01 3.1614553431813636e+01 0 0 0
2922 2501 2 0.0000000000000000e+00 5.2125031571856148e+01 5.0794590836006748e+01 3.3771543926737088e+01 0 0 0
2928 2501 2 0.0000000000000000e+00 5.3804591404061817e+01 4.9698885186271170e+01 3.5614853734794416e+01 0 0 0
2927 2501 2 0.0000000000000000e+00 5.4156723303561527e+01 4.8133504439729357e+01 3.7617292761057563e+01 0 0 0
2930 2501 2 0.0000000000000000e+00 5.5478953621999310e+01 4.8806780544712538e+01 3.7239337045261692e+01 0 0 0
2925 2501 2 0.0000000000000000e+00 5.5295228934993190e+01 4.9597424766695546e+01 3.5941955649639588e+01 0 0 0
2923 2501 2 0.0000000000000000e+00 5.3303089348035840e+01 5.1104587141608555e+01 3.5952912565183510e+01 0 0 0
2924 2501 2 0.0000000000000000e+00 5.2211959834833102e+01 5.1259414507425447e+01 3.2317009771273177e+01 0 0 0
4186 2639 2 0.0000000000000000e+00 5.6639087812872653e+01 5.0173652252917897e+01 3.2126604322879231e+01 0 0 0
4183 2639 2 0.0000000000000000e+00 5.7846872852594750e+01 5.1111831040889939e+01 3.2107474243745834e+01 0 0 0
3481 2563 2 0.0000000000000000e+00 6.3247315026675075e+01 4.8591357471847360e+01 3.5958953348940049e+01 0 0 0
3484 2563 2 0.0000000000000000e+00 6.3530943235879697e+01 4.9342450620735342e+01 3.4655756279952122e+01 0 0 0
3480 2563 2 0.0000000000000000e+00 6.4201542890287897e+01 5.0679616945223060e+01 3.4973606446014088e+01 0 0 0
3486 2563 2 0.0000000000000000e+00 6.4018339498974214e+01 4.9249466918451397e+01 3.7105338664660010e+01 0 0 0
3483 2563 2 0.0000000000000000e+00 6.4456356847193121e+01 4.8178522890584873e+01 3.8105593530490424e+01 0 0 0
4188 2639 2 0.0000000000000000e+00 5.8713703135766025e+01 5.0850817063753659e+01 3.3341390165662226e+01 0 0 0
4187 2639 2 0.0000000000000000e+00 6.0036607431908003e+01 5.1209597921469658e+01 3.6163584815316938e+01 0 0 0
3485 2563 2 0.0000000000000000e+00 6.6950905446169003e+01 4.8030263888678633e+01 3.8141073531800927e+01 0 0 0
3488 2563 2 0.0000000000000000e+00 6.5671262746495970e+01 4.7430904591253736e+01 3.7551389513665761e+01 0 0 0
3813 2599 2 0.0000000000000000e+00 7.3157925659459849e+01 4.9953992761659052e+01 3.7611838089228172e+01 0 0 0
3818 2599 2 0.0000000000000000e+00 7.3903743865081054e+01 5.0328165039455463e+01 3.6329053457705633e+01 0 0 0
3361 2548 2 0.0000000000000000e+00 8.1570836379639658e+01 5.0418736771481917e+01 3.8079626013258938e+01 0 0 0
3359 2548 2 0.0000000000000000e+00 8.1465184786514257e+01 5.1405758172261471e+01 3.5788221084151679e+01 0 0 0
3506 2565 2 0.0000000000000000e+00 4.3412950843041472e+01 5.4203005588445286e+01 3.6559603612806455e+01 0 0 0
3510 2565 2 0.0000000000000000e+00 4.3192113255828026e+01 5.5340174331152383e+01 3.7558014564834352e+01 0 0 0
3599 2573 2 0.0000000000000000e+00 4.6280774009429251e+01 5.7800177061973521e+01 3.8045541982855589e+01 0 0 0
3508 2565 2 0.0000000000000000e+00 4.4897492981967922e+01 5.4121365138718765e+01 3.6200776855500038e+01 0 0 0
3505 2565 3 0.0000000000000000e+00 4.5262286076871803e+01 5.5280994515810718e+01 3.5271374585166555e+01 0 0 0
2827 2490 2 0.0000000000000000e+00 4.8328084253177067e+01 5.4308215897853486e+01 3.8047243580755961e+01 0 0 0
2822 2490 2 0.0000000000000000e+00 4.8530049330254073e+01 5.4971166130446058e+01 3.6682773490157857e+01 0 0 0
2825 2490 2 0.0000000000000000e+00 4.9777383791018728e+01 5.4390489142336676e+01 3.6014745738052419e+01 0 0 0
2820 2490 2 0.0000000000000000e+00 5.0320325441152789e+01 5.5390892733221818e+01 3.4991909913515613e+01 0 0 0
2823 2490 2 0.0000000000000000e+00 4.9170411408160398e+01 5.5908787113336828e+01 3.4124504816971061e+01 0 0 0
2821 2490 2 0.0000000000000000e+00 4.8639630306643362e+01 5.7766876044048495e+01 3.2542832592352184e+01 0 0 0
2819 2490 2 0.0000000000000000e+00 4.9386949595330684e+01 5.7392491193192171e+01 3.3823706140243544e+01 0 0 0
2818 2490 3 0.0000000000000000e+00 4.8359509697514440e+01 5.6502617406120713e+01 3.1727488868164311e+01 0 0 0
2926 2501 2 0.0000000000000000e+00 5.2839909129845260e+01 5.1802961450989308e+01 3.4672035567015264e+01 0 0 0
4196 2640 2 0.0000000000000000e+00 5.4202530863058229e+01 5.7427445396268865e+01 3.5326514354415245e+01 0 0 0
4201 2640 2 0.0000000000000000e+00 5.4880915388659638e+01 5.7513666861806115e+01 3.6695613270442287e+01 0 0 0
4198 2640 2 0.0000000000000000e+00 5.5762309307785415e+01 5.6279460539628637e+01 3.6906145407530040e+01 0 0 0
4204 2640 2 0.0000000000000000e+00 5.6382575808582750e+01 5.3751527394695238e+01 3.7726359014094704e+01 0 0 0
4199 2640 2 0.0000000000000000e+00 5.4015439638538126e+01 5.5958671370809988e+01 3.4943121807728041e+01 0 0 0
4194 2640 2 0.0000000000000000e+00 5.4310127619260449e+01 5.5779524711174531e+01 3.3452198748276082e+01 0 0 0
4197 2640 2 0.0000000000000000e+00 5.3384068199184611e+01 5.6685064691170588e+01 3.2636527394405363e+01 0 0 0
3479 2563 3 0.0000000000000000e+00 6.2703512726853468e+01 5.2066114174788190e+01 3.3533062804985832e+01 0 0 0
3482 2563 2 0.0000000000000000e+00 6.4141013918746083e+01 5.1585143223144122e+01 3.3742490862450538e+01 0 0 0
4274 2648 4 0.0000000000000000e+00 6.0312399050000003e+01 5.6703886070000003e+01 3.6807444930000003e+01 0 0 0
4276 2648 2 0.0000000000000000e+00 5.9971403324972385e+01 5.5988580287596662e+01 3.5175698406763722e+01 0 0 0
4272 2648 2 0.0000000000000000e+00 6.0540338339690088e+01 5.6904179538960513e+01 3.4090792615080645e+01 0 0 0
4275 2648 2 0.0000000000000000e+00 6.1194361518543936e+01 5.6054235248906757e+01 3.2998316318327063e+01 0 0 0
4270 2648 2 0.0000000000000000e+00 6.2712779530587184e+01 5.6059505910127207e+01 3.3188750093971599e+01 0 0 0
4273 2648 2 0.0000000000000000e+00 6.3332234127904336e+01 5.7155959989428737e+01 3.2317826029203019e+01 0 0 0
4190 2639 2 0.0000000000000000e+00 5.9562993672116257e+01 5.2296483251931740e+01 3.5195067206726812e+01 0 0 0
4191 2639 2 0.0000000000000000e+00 5.9848616188741211e+01 5.1692927731817207e+01 3.7602362492562982e+01 0 0 0
4185 2639 2 0.0000000000000000e+00 5.8309900431658747e+01 5.1814302951122471e+01 3.4460801874505343e+01 0 0 0
4268 2648 2 0.0000000000000000e+00 6.4660260572603761e+01 5.7604618513850021e+01 3.2931929301312252e+01 0 0 0
3819 2599 2 0.0000000000000000e+00 6.9249579578065664e+01 5.2070414832367064e+01 3.7460416473843523e+01 0 0 0
3822 2599 2 0.0000000000000000e+00 6.9779794970322129e+01 5.2985514275322942e+01 3.6353564772533723e+01 0 0 0
3817 2599 2 0.0000000000000000e+00 7.0906842935434270e+01 5.2274923569165622e+01 3.5600763459655042e+01 0 0 0
3815 2599 2 0.0000000000000000e+00 7.3312799128894611e+01 5.1616068932180148e+01 3.5753399063734562e+01 0 0 0
3820 2599 2 0.0000000000000000e+00 7.2072360943088754e+01 5.2010988263982313e+01 3.6558025282683786e+01 0 0 0
3357 2548 2 0.0000000000000000e+00 8.2146574804417256e+01 5.1492038704660729e+01 3.7154804589581907e+01 0 0 0
3356 2548 3 0.0000000000000000e+00 8.0699792428347891e+01 5.2702745737588117e+01 3.5516926647231401e+01 0 0 0
3594 2573 2 0.0000000000000000e+00 4.4395319242765773e+01 6.1672557020512016e+01 3.3218224084665856e+01 0 0 0
3598 2573 2 0.0000000000000000e+00 4.4523011815673577e+01 6.0474273942400416e+01 3.4159796553070130e+01 0 0 0
4015 2621 2 0.0000000000000000e+00 4.3391615341050468e+01 6.1492213516968292e+01 3.7487190521125200e+01 0 0 0
4011 2621 2 0.0000000000000000e+00 3.9822261547259579e+01 5.9358392570758269e+01 3.7666095171708442e+01 0 0 0
4018 2621 2 0.0000000000000000e+00 4.2174519993018961e+01 6.0754779310357193e+01 3.6922111782187528e+01 0 0 0
4013 2621 2 0.0000000000000000e+00 4.2283906540798235e+01 5.9264314772928238e+01 3.7251689637405214e+01 0 0 0
4016 2621 2 0.0000000000000000e+00 4.0943845419971332e+01 5.8581951776462986e+01 3.6972571279095476e+01 0 0 0
3597 2573 2 0.0000000000000000e+00 4.7370689265648608e+01 5.9411127184100984e+01 3.6476167353989979e+01 0 0 0
3602 2573 2 0.0000000000000000e+00 4.7111778199951971e+01 5.9082523536130886e+01 3.7948259824013100e+01 0 0 0
3593 2573 3 0.0000000000000000e+00 4.5999682344274959e+01 6.3271147993382598e+01 3.2163633699886439e+01 0 0 0
3596 2573 2 0.0000000000000000e+00 4.5663710674648179e+01 6.1792877278594645e+01 3.2372060156570114e+01 0 0 0
3600 2573 2 0.0000000000000000e+00 4.6075126274672371e+01 5.9240438192747312e+01 3.5681389449301513e+01 0 0 0
3595 2573 2 0.0000000000000000e+00 4.5974968037594245e+01 6.0344615262074967e+01 3.4626615819706281e+01 0 0 0
4160 2636 2 0.0000000000000000e+00 4.9512124134864372e+01 6.3041063849439702e+01 3.7746264381882867e+01 0 0 0
4156 2636 2 0.0000000000000000e+00 4.9767465582794131e+01 6.3293727924060590e+01 3.6259660450550470e+01 0 0 0
4159 2636 2 0.0000000000000000e+00 5.0109420078641485e+01 6.1970730512167393e+01 3.5569442346300292e+01 0 0 0
4257 2647 2 0.0000000000000000e+00 5.6914404997803778e+01 5.9313627239822260e+01 3.3007376426744464e+01 0 0 0
4260 2647 2 0.0000000000000000e+00 5.7404260905081841e+01 6.0154865179301872e+01 3.1825511714496105e+01 0 0 0
4262 2647 2 0.0000000000000000e+00 5.7002265014875555e+01 6.0139992173599978e+01 3.4292400824077944e+01 0 0 0
4263 2647 2 0.0000000000000000e+00 5.5639408201779176e+01 6.1851914505288740e+01 3.5497752765751486e+01 0 0 0
4259 2647 2 0.0000000000000000e+00 5.6177905230978730e+01 6.1420099262867367e+01 3.4132986788746273e+01 0 0 0
4261 2647 4 0.0000000000000000e+00 5.6599321770000003e+01 6.1043329620000002e+01 3.6807444930000003e+01 0 0 0
4154 2636 2 0.0000000000000000e+00 5.1506588012402233e+01 6.2063940725930053e+01 3.4952093393970216e+01 0 0 0
4157 2636 2 0.0000000000000000e+00 5.1991276735852495e+01 6.0661858996861184e+01 3.4573031475608467e+01 0 0 0
4152 2636 2 0.0000000000000000e+00 5.2438817114931780e+01 6.0656092923205506e+01 3.3109560976428838e+01 0 0 0
4155 2636 2 0.0000000000000000e+00 5.2155456295209326e+01 6.2023447388912338e+01 3.2485591011206431e+01 0 0 0
3377 2550 2 0.0000000000000000e+00 6.1421589506185256e+01 6.1591745390163631e+01 3.2083614672185675e+01 0 0 0
3374 2550 3 0.0000000000000000e+00 6.1184486865147782e+01 6.2770956521221336e+01 3.3029577830614201e+01 0 0 0
3375 2550 2 0.0000000000000000e+00 6.2905538782793109e+01 6.1221464256871059e+01 3.2092193732468310e+01 0 0 0
3379 2550 2 0.0000000000000000e+00 6.3739566574516608e+01 6.2451976848773597e+01 3.1733051951306976e+01 0 0 0
3376 2550 2 0.0000000000000000e+00 6.4964785304402511e+01 6.2522655893136950e+01 3.2647793459502928e+01 0 0 0
4271 2648 2 0.0000000000000000e+00 6.5392573238286360e+01 5.8518553935554252e+01 3.1948196462659553e+01 0 0 0
3381 2550 2 0.0000000000000000e+00 6.5868439531604793e+01 6.3674455526894917e+01 3.2202200921889052e+01 0 0 0
3378 2550 2 0.0000000000000000e+00 6.7121292937700161e+01 6.3707528686690956e+01 3.3078873386591646e+01 0 0 0
3380 2550 2 0.0000000000000000e+00 6.8180590579800963e+01 6.2518365628172596e+01 3.5004955417450390e+01 0 0 0
3383 2550 2 0.0000000000000000e+00 6.7298657086559587e+01 6.2350895648183950e+01 3.3764555729187521e+01 0 0 0
3386 2550 2 0.0000000000000000e+00 6.7236710688800983e+01 5.9491433231485765e+01 3.7189293304970917e+01 0 0 0
3384 2550 4 0.0000000000000000e+00 6.5518843689999997e+01 5.9051362869999998e+01 3.6807444930000003e+01 0 0 0
3382 2550 2 0.0000000000000000e+00 6.7839613302377629e+01 6.0255322576050091e+01 3.6009458092406589e+01 0 0 0
3385 2550 2 0.0000000000000000e+00 6.7563173958443002e+01 6.1751741517977607e+01 3.6176693560164324e+01 0 0 0
4097 2630 2 0.0000000000000000e+00 7.5202137535423034e+01 6.2351272283697377e+01 3.8095679910021836e+01 0 0 0
4092 2630 2 0.0000000000000000e+00 7.5935558857481837e+01 6.3425991878033962e+01 3.7290101222513066e+01 0 0 0
4095 2630 2 0.0000000000000000e+00 7.7412848018765132e+01 6.3445495335885305e+01 3.7692196533622443e+01 0 0 0
2993 2509 3 0.0000000000000000e+00 7.1863646231758182e+01 6.2701156159738460e+01 3.3629938377968529e+01 0 0 0
2996 2509 2 0.0000000000000000e+00 7.2371647665206197e+01 6.4143102148348760e+01 3.3695734915383198e+01 0 0 0
2994 2509 2 0.0000000000000000e+00 7.3273247449885233e+01 6.4421584589789262e+01 3.2492052007347873e+01 0 0 0
4086 2630 3 0.0000000000000000e+00 7.7241806571856827e+01 6.0786609465984078e+01 3.3006262410411402e+01 0 0 0
4093 2630 2 0.0000000000000000e+00 7.7436324046367318e+01 6.4532993707499827e+01 3.5443845650552092e+01 0 0 0
4089 2630 2 0.0000000000000000e+00 7.7252196328933906e+01 6.2038215165652559e+01 3.2125934006316825e+01 0 0 0
4087 2630 2 0.0000000000000000e+00 7.7131311913980426e+01 6.3282491109851122e+01 3.3007098861427465e+01 0 0 0
2536 2457 6 4.0000000000000002e-01 7.4807186831914080e+01 5.8388955005770427e+01 3.7464627238915497e+01 0 0 0
4091 2630 2 0.0000000000000000e+00 7.8526731515578803e+01 6.3831637415744048e+01 3.3307080379431788e+01 0 0 0
4090 2630 2 0.0000000000000000e+00 7.8177583296876165e+01 6.4402910310974264e+01 3.6775349733569193e+01 0 0 0
3411 2554 2 0.0000000000000000e+00 5.2249960771547244e+01 6.9152283623983905e+01 3.7573987891136262e+01 0 0 0
2548 2458 4 0.0000000000000000e+00 5.9073843519999997e+01 6.5531160369999995e+01 3.6807444930000003e+01 0 0 0
2549 2458 2 0.0000000000000000e+00 6.1322097844304402e+01 6.8958358104810102e+01 3.6668974716109325e+01 0 0 0
2544 2458 2 0.0000000000000000e+00 6.1776254523252042e+01 6.9807821682828688e+01 3.5479840817894704e+01 0 0 0
2550 2458 2 0.0000000000000000e+00 6.0380785297913484e+01 6.6714441591689649e+01 3.7234394431270267e+01 0 0 0
2546 2458 2 0.0000000000000000e+00 6.0442118998349471e+01 6.7809815435081575e+01 3.6168831692553134e+01 0 0 0
4032 2622 4 0.0000000000000000e+00 6.4725279270000001e+01 6.4707153590000004e+01 3.6807444930000003e+01 0 0 0
4034 2622 2 0.0000000000000000e+00 6.4522528523153227e+01 6.6395759374952661e+01 3.6176541017799764e+01 0 0 0
4024 2622 2 0.0000000000000000e+00 6.8784234552639944e+01 6.7840689789457443e+01 3.3352099418362720e+01 0 0 0
4026 2622 2 0.0000000000000000e+00 6.6543788388531965e+01 6.8354747745067471e+01 3.2374130089361763e+01 0 0 0
4031 2622 2 0.0000000000000000e+00 6.5720839014590410e+01 6.9222017180401863e+01 3.3329467507294297e+01 0 0 0
4028 2622 2 0.0000000000000000e+00 6.5049646130904677e+01 6.8329905292297710e+01 3.4377360998464141e+01 0 0 0
4030 2622 2 0.0000000000000000e+00 6.5779703793784861e+01 6.7208903892084408e+01 3.6488528120889761e+01 0 0 0
4033 2622 2 0.0000000000000000e+00 6.5725793646650104e+01 6.8539888331125439e+01 3.5734054673542104e+01 0 0 0
4029 2622 2 0.0000000000000000e+00 6.8010090040912416e+01 6.8786066024338396e+01 3.2430823055227101e+01 0 0 0
4027 2622 2 0.0000000000000000e+00 6.9694464924367239e+01 6.8657191674204782e+01 3.4272813168688224e+01 0 0 0
4023 2622 2 0.0000000000000000e+00 7.0547136968534247e+01 6.9609279968431792e+01 3.3433036579064257e+01 0 0 0
4022 2622 3 0.0000000000000000e+00 7.0412261532591657e+01 7.0703280364410119e+01 3.5675046095446966e+01 0 0 0
4025 2622 2 0.0000000000000000e+00 7.0755472351359700e+01 7.0916559835155297e+01 3.4199132459580625e+01 0 0 0
2998 2509 2 0.0000000000000000e+00 7.4133651283389554e+01 6.5653927952981164e+01 3.2774508177435948e+01 0 0 0
2995 2509 2 0.0000000000000000e+00 7.3855464244694204e+01 6.6156132813214882e+01 3.4193419983266516e+01 0 0 0
3000 2509 2 0.0000000000000000e+00 7.4732223810776773e+01 6.7376262003713876e+01 3.4483873929463449e+01 0 0 0
2999 2509 2 0.0000000000000000e+00 7.3769566075251618e+01 6.8441400909985333e+01 3.8056033043895631e+01 0 0 0
3002 2509 2 0.0000000000000000e+00 7.3603228568022985e+01 6.8203023201078281e+01 3.6552719309120597e+01 0 0 0
2997 2509 2 0.0000000000000000e+00 7.4872730297891920e+01 6.7554174545735492e+01 3.5996452903772116e+01 0 0 0
4088 2630 2 0.0000000000000000e+00 7.8422684655479912e+01 6.4947430735918843e+01 3.4349715503370419e+01 0 0 0
2538 2458 3 0.0000000000000000e+00 6.3234748961349943e+01 7.7049914972241396e+01 3.1825598975539215e+01 0 0 0
2547 2458 2 0.0000000000000000e+00 6.1493608626258627e+01 7.1284368691920022e+01 3.5770296503292016e+01 0 0 0
2540 2458 2 0.0000000000000000e+00 6.3259894635563839e+01 7.4461524622080290e+01 3.4522480758158551e+01 0 0 0
2539 2458 2 0.0000000000000000e+00 6.3500932482012360e+01 7.6938993795924318e+01 3.4307227019345000e+01 0 0 0
2543 2458 2 0.0000000000000000e+00 6.3520377712433429e+01 7.5763062428637525e+01 3.5284751300956025e+01 0 0 0
2542 2458 2 0.0000000000000000e+00 6.2353371316490524e+01 7.2157401225243774e+01 3.4853402900050533e+01 0 0 0
2545 2458 2 0.0000000000000000e+00 6.2234731538371932e+01 7.3619754653080008e+01 3.5285533861827503e+01 0 0 0
2541 2458 2 0.0000000000000000e+00 6.4090916343563322e+01 7.6497128212206732e+01 3.2967092323056946e+01 0 0 0
3252 2536 2 0.0000000000000000e+00 5.8211249177584058e+01 7.3151269060535682e+01 3.8063579549519979e+01 0 0 0
3251 2536 2 0.0000000000000000e+00 5.9550677414717477e+01 7.5245533567023202e+01 3.7816763350185632e+01 0 0 0
3906 2608 2 0.0000000000000000e+00 6.3058758603799234e+01 4.1235255539265239e+01 4.3849419747812519e+01 0 0 0
3904 2608 5 -6.8500000000000005e-01 6.1800670737256304e+01 4.1316405680605456e+01 4.3184528673277967e+01 0 0 0
3907 2608 6 4.0000000000000002e-01 6.1881702671470926e+01 4.2008894230715100e+01 4.2507005758605921e+01 0 0 0
2610 2466 5 -6.8500000000000005e-01 6.1758889942627590e+01 4.3795201894064732e+01 4.1166949528501966e+01 0 0 0
2613 2466 6 4.0000000000000002e-01 6.2368872697371614e+01 4.3149536169174674e+01 4.0771752544693634e+01 0 0 0
2828 2490 4 0.0000000000000000e+00 4.9270041759999998e+01 5.1242516109999997e+01 4.1935742910000002e+01 0 0 0
2931 2501 4 0.0000000000000000e+00 5.4004136389999999e+01 4.7417128460000001e+01 4.1935742910000002e+01 0 0 0
2933 2501 2 0.0000000000000000e+00 5.5394723713391919e+01 4.8338906824618029e+01 4.1223613221506874e+01 0 0 0
2929 2501 2 0.0000000000000000e+00 5.4995070979324190e+01 4.8880345218462956e+01 3.9850240817691287e+01 0 0 0
2932 2501 2 0.0000000000000000e+00 5.4146468660101803e+01 4.7837153799148453e+01 3.9118611260647398e+01 0 0 0
1 1 1 0.0000000000000000e+00 5.9326799999999999e+01 4.9478000000000002e+01 4.2748800000000003e+01 0 0 0
5 5 1 0.0000000000000000e+00 6.3276000000000003e+01 4.9396799999999999e+01 4.2660699999999999e+01 0 0 0
70 70 1 0.0000000000000000e+00 5.9324199999999998e+01 4.7432400000000001e+01 4.4668900000000001e+01 0 0 0
72 72 1 0.0000000000000000e+00 6.3346400000000003e+01 4.7481900000000003e+01 4.4714399999999998e+01 0 0 0
2614 2466 4 0.0000000000000000e+00 5.9835143440000003e+01 4.5672250439999999e+01 4.1935742910000002e+01 0 0 0
2611 2466 2 0.0000000000000000e+00 6.1314881953911936e+01 4.6150287507017381e+01 4.0998513861429572e+01 0 0 0
2612 2466 2 0.0000000000000000e+00 6.2386472607232207e+01 4.5071540294842265e+01 4.1074478783765741e+01 0 0 0
4189 2639 4 0.0000000000000000e+00 6.0976735830000003e+01 5.0785236949999998e+01 3.8695056710000003e+01 0 0 0
7 7 1 0.0000000000000000e+00 6.5265900000000002e+01 5.1289800000000000e+01 4.2867600000000003e+01 0 0 0
3491 2563 2 0.0000000000000000e+00 6.7242502815680965e+01 4.5944828943907204e+01 4.0768302573682739e+01 0 0 0
3487 2563 2 0.0000000000000000e+00 6.7870440088173268e+01 4.7271199838114342e+01 4.0337646499968372e+01 0 0 0
3490 2563 2 0.0000000000000000e+00 6.6808453624473586e+01 4.8141577204565024e+01 3.9660679704285705e+01 0 0 0
3489 2563 4 0.0000000000000000e+00 6.5892354670000003e+01 4.6268433909999999e+01 4.1935742910000002e+01 0 0 0
2676 2472 4 0.0000000000000000e+00 7.1271284140000006e+01 4.9116654480000001e+01 4.1935742910000002e+01 0 0 0
3811 2599 3 0.0000000000000000e+00 7.6256632767151132e+01 5.0251647092356158e+01 4.0735740862616240e+01 0 0 0
3814 2599 2 0.0000000000000000e+00 7.5208856681456453e+01 5.0403445448550478e+01 3.9630876436157699e+01 0 0 0
3816 2599 2 0.0000000000000000e+00 7.3866958281169673e+01 4.8779279591954975e+01 3.8290240754017063e+01 0 0 0
3812 2599 2 0.0000000000000000e+00 7.5281910600842792e+01 4.9199878345926940e+01 3.8689931943848741e+01 0 0 0
2673 2472 2 0.0000000000000000e+00 7.1624570531757072e+01 4.9667584096522418e+01 4.3629321683296929e+01 0 0 0
2674 2472 2 0.0000000000000000e+00 7.2918173457208709e+01 4.9055284396374326e+01 4.4148410607907572e+01 0 0 0
2672 2472 5 -6.8500000000000005e-01 7.3986519163991531e+01 4.9975969697365507e+01 4.3942433368135831e+01 0 0 0
2675 2472 6 4.0000000000000002e-01 7.4807499864679812e+01 4.9518595827308552e+01 4.4191318288099517e+01 0 0 0
4076 2628 5 -6.8500000000000005e-01 7.6535427146822883e+01 4.8589405738541728e+01 4.4464594021515730e+01 0 0 0
3363 2548 2 0.0000000000000000e+00 8.1985182419295853e+01 5.1172026671602517e+01 4.0426438025289883e+01 0 0 0
3358 2548 2 0.0000000000000000e+00 8.0945098535100371e+01 5.1085206167450416e+01 3.9307298268941047e+01 0 0 0
4009 2621 3 0.0000000000000000e+00 3.9183019158560761e+01 5.5967927935963921e+01 4.0415700075042842e+01 0 0 0
3516 2565 2 0.0000000000000000e+00 4.3267649668084573e+01 5.4901513063184346e+01 4.3798812652403825e+01 0 0 0
3511 2565 2 0.0000000000000000e+00 4.2962017797830704e+01 5.3680478442800080e+01 4.2928439351966240e+01 0 0 0
3509 2565 2 0.0000000000000000e+00 4.1957445384273086e+01 5.3454332897876782e+01 4.0651225099596076e+01 0 0 0
3512 2565 2 0.0000000000000000e+00 4.2184697929803882e+01 5.3707657231824953e+01 3.9160093602801524e+01 0 0 0
3507 2565 2 0.0000000000000000e+00 4.3255231410304319e+01 5.4786847246320846e+01 3.8983761283984997e+01 0 0 0
3514 2565 2 0.0000000000000000e+00 4.3114881431660706e+01 5.4055547303639074e+01 4.1451821485689614e+01 0 0 0
4012 2621 2 0.0000000000000000e+00 4.0137758288588358e+01 5.7153855435558398e+01 4.0261907902130218e+01 0 0 0
3603 2573 4 0.0000000000000000e+00 4.6339772670000002e+01 5.6577191890000002e+01 4.1935742910000002e+01 0 0 0
3604 2573 2 0.0000000000000000e+00 4.5891902744917495e+01 5.7554238493388468e+01 3.9505055410228536e+01 0 0 0
2830 2490 2 0.0000000000000000e+00 5.0202587789945888e+01 5.2773298970806515e+01 4.2214308664814531e+01 0 0 0
2829 2490 2 0.0000000000000000e+00 4.9432414684841689e+01 5.2969321918094970e+01 3.9845904464486544e+01 0 0 0
2824 2490 2 0.0000000000000000e+00 4.9650973562450474e+01 5.3697477894778856e+01 3.8517782865624461e+01 0 0 0
2826 2490 2 0.0000000000000000e+00 5.0450870851494095e+01 5.3467745709726806e+01 4.0874484471886390e+01 0 0 0
2 2 1 0.0000000000000000e+00 5.7254199999999997e+01 5.1557899999999997e+01 4.2889000000000003e+01 0 0 0
8 8 1 0.0000000000000000e+00 5.5246000000000002e+01 5.3484600000000000e+01 4.2998399999999997e+01 0 0 0
9 9 1 0.0000000000000000e+00 5.3108600000000003e+01 5.5394199999999998e+01 4.3091500000000003e+01 0 0 0
12 12 1 0.0000000000000000e+00 5.7149600000000000e+01 5.5344799999999999e+01 4.2846100000000000e+01 0 0 0
20 20 1 0.0000000000000000e+00 5.5183300000000003e+01 5.7411099999999998e+01 4.2889600000000002e+01 0 0 0
4202 2640 4 0.0000000000000000e+00 5.5253251159999998e+01 5.2713843560000001e+01 3.8695056710000003e+01 0 0 0
4200 2640 2 0.0000000000000000e+00 5.6927739083691009e+01 5.4872886685322690e+01 3.8612011291158446e+01 0 0 0
4203 2640 2 0.0000000000000000e+00 5.6101760312104503e+01 5.6142945143137794e+01 3.8392087079207627e+01 0 0 0
2519 2455 4 0.0000000000000000e+00 5.1519824049999997e+01 5.7461403179999998e+01 3.8695056710000003e+01 0 0 0
3 3 1 0.0000000000000000e+00 5.9217700000000001e+01 5.1583399999999997e+01 4.0965299999999999e+01 0 0 0
4 4 1 0.0000000000000000e+00 6.3509599999999999e+01 5.1626899999999999e+01 4.0731200000000001e+01 0 0 0
6 6 1 0.0000000000000000e+00 6.1335999999999999e+01 5.1478700000000003e+01 4.2680300000000003e+01 0 0 0
10 10 1 0.0000000000000000e+00 5.9224499999999999e+01 5.5330800000000004e+01 4.0920900000000003e+01 0 0 0
11 11 1 0.0000000000000000e+00 5.9467399999999998e+01 5.3377099999999999e+01 4.2929299999999998e+01 0 0 0
13 13 1 0.0000000000000000e+00 6.1336599999999997e+01 5.3333100000000002e+01 4.0550899999999999e+01 0 0 0
14 14 1 0.0000000000000000e+00 6.3418199999999999e+01 5.5220199999999998e+01 4.1035200000000003e+01 0 0 0
15 15 1 0.0000000000000000e+00 6.3352800000000002e+01 5.3315600000000003e+01 4.2946199999999997e+01 0 0 0
16 16 1 0.0000000000000000e+00 6.1267200000000003e+01 5.5357799999999997e+01 4.2808799999999998e+01 0 0 0
23 23 1 0.0000000000000000e+00 5.9301499999999997e+01 5.7321599999999997e+01 4.2941800000000001e+01 0 0 0
25 25 1 0.0000000000000000e+00 6.1342700000000001e+01 5.7346699999999998e+01 4.0990299999999998e+01 0 0 0
27 27 1 0.0000000000000000e+00 6.3452599999999997e+01 5.7332099999999997e+01 4.2875500000000002e+01 0 0 0
17 17 1 0.0000000000000000e+00 6.7404100000000000e+01 5.3487699999999997e+01 4.3072400000000002e+01 0 0 0
18 18 1 0.0000000000000000e+00 6.5546800000000005e+01 5.5348700000000001e+01 4.2902900000000002e+01 0 0 0
19 19 1 0.0000000000000000e+00 6.9530600000000007e+01 5.5502499999999998e+01 4.3170600000000000e+01 0 0 0
29 29 1 0.0000000000000000e+00 6.7503600000000006e+01 5.7336399999999998e+01 4.2939599999999999e+01 0 0 0
3821 2599 4 0.0000000000000000e+00 6.6822058740000003e+01 5.2305105439999998e+01 3.8695056710000003e+01 0 0 0
3823 2599 2 0.0000000000000000e+00 6.8521909183149788e+01 5.2910948945295573e+01 3.8510667786061923e+01 0 0 0
2537 2457 4 0.0000000000000000e+00 7.0881231009999993e+01 5.6777344329999998e+01 3.8695056710000003e+01 0 0 0